VARIABLES = x nde ndi rho phi ef
ZONE I=101 T=ZONE_000000
0 1.0002e+016 1.0002e+016 -1.03219e-009 0 0.0662889
0.0001 1e+016 1e+016 1.37626e-009 -6.62889e-006 0.0740607
0.0002 1e+016 1e+016 8.60162e-010 -1.48121e-005 0.0866899
0.0003 1e+016 1e+016 5.16097e-010 -2.39669e-005 0.0944617
0.0004 1e+016 1e+016 5.16097e-010 -3.37045e-005 0.100291
0.0005 1e+016 1e+016 5.16097e-010 -4.4025e-005 0.106119
0.0006 1e+016 1e+016 -6.8813e-010 -5.49284e-005 0.105148
0.0007 1e+016 1e+016 6.8813e-010 -6.50546e-005 0.105148
0.0008 1e+016 1e+016 1.03219e-009 -7.5958e-005 0.114863
0.0009 1e+016 1e+016 3.44065e-010 -8.80271e-005 0.122635
0.001 1e+016 1e+016 3.44065e-010 -0.000100485 0.126521
0.0011 1e+016 1e+016 -1.89236e-009 -0.000113331 0.117777
0.0012 1e+016 1e+016 -8.60162e-010 -0.00012404 0.102234
0.0013 1e+016 1e+016 -5.16097e-010 -0.000133778 0.0944621
0.0014 1e+016 1e+016 -1.03219e-009 -0.000142933 0.0857189
0.0015 1e+016 9.99999e+015 -1.03219e-009 -0.000150922 0.0740613
0.0016 9.99999e+015 1e+016 1.03219e-009 -0.000157745 0.0740614
0.0017 1e+016 1e+016 1.37626e-009 -0.000165734 0.0876621
0.0018 1e+016 9.99999e+015 -1.03219e-009 -0.000175278 0.0896051
0.0019 1e+016 1e+016 5.16097e-010 -0.000183655 0.0866908
0.002 1e+016 9.99999e+015 -2.06439e-009 -0.000192616 0.0779476
0.0021 1e+016 1e+016 1.72032e-010 -0.000199245 0.0672615
0.0022 1e+016 1e+016 -5.16097e-010 -0.000206068 0.0653186
0.0023 1e+016 1e+016 -6.8813e-010 -0.000212308 0.0585184
0.0024 1e+016 1e+016 -6.8813e-010 -0.000217772 0.0507467
0.0025 1e+016 1e+016 -8.60162e-010 -0.000222458 0.0420036
0.0026 1e+016 1e+016 -6.8813e-010 -0.000226172 0.0332604
0.0027 1e+016 1e+016 -1.72032e-009 -0.00022911 0.0196598
0.0028 1e+016 1e+016 0 -0.000230104 0.00994521
0.0029 1e+016 1e+016 -8.60162e-010 -0.000231099 0.00508795
0.003 1e+016 1e+016 5.16097e-010 -0.000231122 0.00314512
0.0031 9.99999e+015 1e+016 5.16097e-010 -0.000231728 0.00897409
0.0032 9.99999e+015 1e+016 1.03219e-009 -0.000232917 0.0177175
0.0033 1e+016 1e+016 6.8813e-010 -0.000235271 0.0274324
0.0034 1e+016 1e+016 -6.8813e-010 -0.000238403 0.0274325
0.0035 1e+016 9.99999e+015 -8.60162e-010 -0.000240758 0.0186893
0.0036 1e+016 1e+016 0 -0.000242141 0.0138321
0.0037 1e+016 1e+016 3.44065e-010 -0.000243524 0.0157752
0.0038 1e+016 1e+016 -1.72032e-010 -0.000245296 0.0167468
0.0039 1e+016 1e+016 8.60162e-010 -0.000246874 0.0206328
0.004 1e+016 1e+016 -6.8813e-010 -0.000249423 0.0216044
0.0041 1e+016 9.99999e+015 -1.72032e-009 -0.000251195 0.00800389
0.0042 1e+016 1e+016 3.44065e-010 -0.000251023 0.000232228
0.0043 1e+016 1e+016 -8.60162e-010 -0.000251241 -0.00268206
0.0044 1e+016 1e+016 -6.8813e-010 -0.000250487 -0.0114252
0.0045 1e+016 1e+016 1.72032e-010 -0.000248956 -0.0143395
0.0046 1e+016 9.99999e+015 -3.44065e-010 -0.000247619 -0.0153108
0.0047 1e+016 1e+016 3.44065e-010 -0.000245894 -0.0153107
0.0048 9.99999e+015 1e+016 8.60162e-010 -0.000244557 -0.00851023
0.0049 9.99999e+015 1e+016 1.20423e-009 -0.000244192 0.0031476
0.005 1e+016 1e+016 -3.44065e-010 -0.000245187 0.00800511
0.0051 1e+016 1e+016 1.03219e-009 -0.000245793 0.0118911
0.0052 1e+016 1e+016 -3.44065e-010 -0.000247565 0.0157772
0.0053 1e+016 1e+016 5.16097e-010 -0.000248948 0.0167488
0.0054 9.99999e+015 1e+016 6.8813e-010 -0.000250915 0.0235492
0.0055 1e+016 1e+016 3.44065e-010 -0.000253658 0.0293782
0.0056 1e+016 1e+016 -3.44065e-010 -0.00025679 0.0293784
0.0057 1e+016 1e+016 -3.44065e-010 -0.000259534 0.0254926
0.0058 1e+016 9.99999e+015 -1.20423e-009 -0.000261889 0.0167494
0.0059 1e+016 1e+016 -5.16097e-010 -0.000262884 0.00703482
0.006 1e+016 1e+016 -1.72032e-010 -0.000263296 0.00314904
0.0061 9.99999e+015 9.99999e+015 -8.60162e-010 -0.000263513 -0.00267968
0.0062 9.99999e+015 1e+016 6.8813e-010 -0.00026276 -0.00365104
0.0063 1e+016 1e+016 1.72032e-010 -0.000262783 0.00120646
0.0064 1e+016 9.99999e+015 -3.09658e-009 -0.000263001 -0.0153085
0.0065 1e+016 9.99999e+015 -6.8813e-010 -0.000259721 -0.0366808
0.0066 1e+016 1e+016 -8.60162e-010 -0.000255665 -0.045424
0.0067 1e+016 1e+016 -5.16097e-010 -0.000250637 -0.0531957
0.0068 1e+016 1e+016 8.60162e-010 -0.000245026 -0.0512526
0.0069 1e+016 1e+016 5.16097e-010 -0.000240386 -0.0434807
0.007 1e+016 1e+016 -1.20423e-009 -0.00023633 -0.0473665
0.0071 1e+016 1e+016 1.72032e-010 -0.000230913 -0.0531953
0.0072 1e+016 9.99999e+015 -6.8813e-010 -0.00022569 -0.0561096
0.0073 1e+016 1e+016 -8.60162e-010 -0.000219691 -0.0648528
0.0074 1e+016 1e+016 3.44065e-010 -0.00021272 -0.0677671
0.0075 1e+016 1e+016 0 -0.000206138 -0.0658241
0.0076 1e+016 1e+016 -8.60162e-010 -0.000199555 -0.0706814
0.0077 1e+016 1e+016 -3.44065e-010 -0.000192001 -0.0774816
0.0078 1e+016 1e+016 0 -0.000184059 -0.0794245
0.0079 1e+016 1e+016 5.16097e-010 -0.000176116 -0.07651
0.008 1e+016 9.99999e+015 -1.37626e-009 -0.000168757 -0.0813673
0.0081 1e+016 1e+016 8.60162e-010 -0.000159843 -0.0842816
0.0082 1e+016 1e+016 5.16097e-010 -0.0001519 -0.0765098
0.0083 1e+016 1e+016 6.8813e-010 -0.000144541 -0.0697094
0.0084 1e+016 1e+016 1.89236e-009 -0.000137959 -0.0551372
0.0085 1e+016 1e+016 -1.72032e-010 -0.000133514 -0.0454224
0.0086 1e+016 1e+016 0 -0.000128874 -0.0463938
0.0087 1e+016 1e+016 -1.72032e-010 -0.000124235 -0.0473653
0.0088 1e+016 9.99999e+015 -1.54829e-009 -0.000119401 -0.05708
0.0089 1e+016 1e+016 -1.37626e-009 -0.000112819 -0.073595
0.009 1e+016 1e+016 0 -0.000104682 -0.0813668
0.0091 1e+016 1e+016 -5.16097e-010 -9.65454e-005 -0.0842812
0.0092 1e+016 1e+016 -1.37626e-009 -8.78258e-005 -0.0949674
0.0093 1e+016 9.99999e+015 -8.60162e-010 -7.75519e-005 -0.107597
0.0094 1e+016 1e+016 1.72032e-010 -6.63065e-005 -0.111482
0.0095 1e+016 1e+016 0 -5.52554e-005 -0.110511
0.0096 1e+016 1e+016 1.72032e-010 -4.42044e-005 -0.109539
0.0097 1e+016 1e+016 -3.44065e-010 -3.33476e-005 -0.110511
0.0098 1e+016 1e+016 3.44065e-010 -2.21022e-005 -0.110511
0.0099 1e+016 1e+016 -3.44065e-010 -1.12454e-005 -0.110511
0.01 9.998e+015 9.998e+015 -1.20423e-009 0 -0.112454
ZONE I=101 T=ZONE_001000
0 1.63864e+014 8.93973e+015 0.00140605 0 -38446
0.0001 1.14323e+015 9.60986e+015 0.0013565 3.8446 -30785.8
0.0002 3.60233e+015 9.71447e+015 0.000979273 6.15715 -17595.5
0.0003 6.44264e+015 9.85499e+015 0.000546719 7.36371 -8978.19
0.0004 8.2713e+015 9.93508e+015 0.000266567 7.95279 -4385.53
0.0005 9.04168e+015 9.91841e+015 0.000140469 8.24081 -2086.98
0.0006 9.62572e+015 1.00685e+016 7.09422e-005 8.37019 -893.135
0.0007 9.87083e+015 9.94432e+015 1.17754e-005 8.41944 -426.025
0.0008 9.95213e+015 1.00297e+016 1.24333e-005 8.45539 -289.317
0.0009 9.81865e+015 9.93081e+015 1.7971e-005 8.47731 -117.622
0.001 9.77463e+015 1.00713e+016 4.75276e-005 8.47892 252.251
0.0011 9.95077e+015 9.94996e+015 -1.30056e-007 8.42686 519.907
0.0012 9.97106e+015 1.00304e+016 9.5103e-006 8.37494 572.878
0.0013 9.98207e+015 9.92319e+015 -9.43391e-006 8.31228 573.309
0.0014 9.99408e+015 1.00933e+016 1.59028e-005 8.26028 609.839
0.0015 1.0054e+016 9.98987e+015 -1.0269e-005 8.19031 641.654
0.0016 1.01267e+016 1.00132e+016 -1.8195e-005 8.13195 480.917
0.0017 1.01554e+016 1.00098e+016 -2.33374e-005 8.09413 246.381
0.0018 1.00514e+016 9.96118e+015 -1.44579e-005 8.08267 32.9494
0.0019 9.98276e+015 9.96091e+015 -3.50103e-006 8.08754 -68.4658
0.002 1.00145e+016 1.0044e+016 4.71902e-006 8.09636 -61.5877
0.0021 1.01476e+016 9.94432e+015 -3.25745e-005 8.09986 -218.889
0.0022 1.00751e+016 1.00852e+016 1.61882e-006 8.14014 -393.697
0.0023 1.0049e+016 9.89682e+015 -2.43794e-005 8.1786 -522.227
0.0024 9.88628e+015 1.00734e+016 2.99808e-005 8.24459 -490.596
0.0025 9.9378e+015 1.00082e+016 1.12791e-005 8.27671 -257.599
0.0026 1.00622e+016 1.00127e+016 -7.9405e-006 8.29611 -238.746
0.0027 1.00708e+016 9.95424e+015 -1.86726e-005 8.32446 -389.031
0.0028 1.00291e+016 1.00618e+016 5.22755e-006 8.37391 -464.956
0.0029 9.85788e+015 9.94728e+015 1.43224e-005 8.41745 -354.556
0.003 1.00024e+016 1.00465e+016 7.07174e-006 8.44482 -233.743
0.0031 9.95236e+015 9.93108e+015 -3.40985e-006 8.4642 -213.064
0.0032 1.00525e+016 1.00509e+016 -2.56844e-007 8.48744 -233.77
0.0033 1.0035e+016 9.96497e+015 -1.12139e-005 8.51096 -298.546
0.0034 1.00044e+016 1.00782e+016 1.18307e-005 8.54714 -295.063
0.0035 9.8308e+015 9.93038e+015 1.59543e-005 8.56997 -138.16
0.0036 1.00634e+016 9.95322e+015 -1.76584e-005 8.57478 -147.784
0.0037 1.02125e+016 1.00651e+016 -2.362e-005 8.59953 -380.885
0.0038 1.0092e+016 1.00192e+016 -1.16714e-005 8.65095 -580.177
0.0039 9.89205e+015 1.00014e+016 1.75208e-005 8.71556 -547.145
0.004 9.90819e+015 9.92923e+015 3.37115e-006 8.76038 -429.168
0.0041 1.00996e+016 9.97641e+015 -1.97447e-005 8.8014 -521.63
0.0042 1.00706e+016 1.00997e+016 4.66036e-006 8.86471 -606.811
0.0043 9.95445e+015 9.92965e+015 -3.97412e-006 8.92276 -602.936
0.0044 1.00118e+016 1.00515e+016 6.36709e-006 8.9853 -589.423
0.0045 1.01831e+016 9.99081e+015 -3.08143e-005 9.04064 -727.477
0.0046 9.92633e+015 1.00057e+016 1.27227e-005 9.13079 -829.641
0.0047 9.63347e+015 9.96566e+015 5.32222e-005 9.20657 -457.248
0.0048 1.0024e+016 1.0018e+016 -9.70607e-007 9.22224 -162.181
0.0049 9.86152e+015 9.94896e+015 1.40098e-005 9.23901 -88.5481
0.005 9.95271e+015 1.00869e+016 2.15008e-005 9.23995 111.982
0.0051 9.98334e+015 9.97871e+015 -7.4146e-007 9.21661 229.211
0.0052 9.77614e+015 1.00112e+016 3.76617e-005 9.19411 437.701
0.0053 9.95129e+015 1.00099e+016 9.38798e-006 9.12907 703.392
0.0054 9.93049e+015 9.98473e+015 8.69176e-006 9.05343 805.489
0.0055 1.00005e+016 9.93917e+015 -9.832e-006 8.96797 799.051
0.0056 9.98162e+015 1.00153e+016 5.40061e-006 8.89362 774.026
0.0057 1.0052e+016 1.00033e+016 -7.80391e-006 8.81317 760.455
0.0058 1.00384e+016 1.00009e+016 -6.01649e-006 8.74153 682.41
0.0059 1.00348e+016 1e+016 -5.57591e-006 8.67669 616.948
0.006 9.93913e+015 1.00115e+016 1.15965e-005 8.61814 650.946
0.0061 1.01381e+016 1.0001e+016 -2.19739e-005 8.5465 592.345
0.0062 9.99334e+015 1.00442e+016 8.15485e-006 8.49967 514.308
0.0063 1.0054e+016 9.9577e+015 -1.5421e-005 8.44363 473.276
0.0064 1.0087e+016 1.00108e+016 -1.22128e-005 8.40502 317.227
0.0065 1.02035e+016 9.91979e+015 -4.54491e-005 8.38019 -8.39171
0.0066 1.00117e+016 1.00906e+016 1.26475e-005 8.40669 -193.624
0.0067 9.82193e+015 9.92579e+015 1.66393e-005 8.41891 -28.2399
0.0068 1.00689e+016 1.0062e+016 -1.10582e-006 8.41234 59.4784
0.0069 9.91694e+015 9.98702e+015 1.12292e-005 8.40702 116.646
0.007 1.00334e+016 1.00135e+016 -3.19447e-006 8.38901 162.019
0.0071 9.92005e+015 9.984e+015 1.02449e-005 8.37461 201.833
0.0072 9.99454e+015 1.00628e+016 1.09294e-005 8.34865 321.405
0.0073 9.95075e+015 9.97178e+015 3.36943e-006 8.31033 402.151
0.0074 9.88523e+015 9.96062e+015 1.20794e-005 8.26822 489.391
0.0075 9.93633e+015 1.00526e+016 1.86339e-005 8.21246 662.83
0.0076 9.93746e+015 9.966e+015 4.57245e-006 8.13565 793.877
0.0077 1.0157e+016 9.95349e+015 -3.26087e-005 8.05368 635.555
0.0078 1.02779e+016 9.94978e+015 -5.25771e-005 8.00854 154.507
0.0079 1.00614e+016 1.00502e+016 -1.78363e-006 8.02278 -152.47
0.008 9.95497e+015 1.00396e+016 1.35574e-005 8.03903 -85.9834
0.0081 1.01476e+016 1.00065e+016 -2.2599e-005 8.03998 -137.042
0.0082 1.00434e+016 1.00217e+016 -3.47265e-006 8.06644 -284.27
0.0083 1.01675e+016 9.92145e+015 -3.94152e-005 8.09683 -526.46
0.0084 1.01878e+016 1.00591e+016 -2.06243e-005 8.17173 -865.505
0.0085 9.81036e+015 9.9668e+015 2.50631e-005 8.26993 -840.439
0.0086 9.91043e+015 1.00271e+016 1.86881e-005 8.33982 -593.375
0.0087 9.90663e+015 9.9835e+015 1.23161e-005 8.38861 -418.293
0.0088 1.01033e+016 9.94286e+015 -2.57094e-005 8.42348 -493.925
0.0089 9.95636e+015 1.00744e+016 1.89146e-005 8.48739 -532.295
0.009 9.75009e+015 9.96235e+015 3.40082e-005 8.52994 -233.438
0.0091 1.00487e+016 1.00769e+016 4.50845e-006 8.53408 -15.9323
0.0092 9.69443e+015 1.00395e+016 5.52802e-005 8.53313 321.697
0.0093 9.79123e+015 9.90902e+015 1.88725e-005 8.46974 740.44
0.0094 9.64255e+015 9.94311e+015 4.81558e-005 8.38504 1118.95
0.0095 9.02907e+015 9.99776e+015 0.000155201 8.24595 2267.32
0.0096 8.33314e+015 9.90948e+015 0.000252559 7.93157 4569.96
0.0097 6.60097e+015 9.85981e+015 0.000522125 7.33196 8944.63
0.0098 3.61622e+015 9.71145e+015 0.000976563 6.14265 17407.8
0.0099 1.06759e+015 9.67847e+015 0.00137961 3.8504 30713.2
0.01 1.14833e+014 8.86856e+015 0.0014025 0 38504
ZONE I=101 T=ZONE_002000
0 4.03113e+014 8.31359e+015 0.0012674 0 -34683.8
0.0001 1.56936e+015 8.7252e+015 0.00114649 3.46838 -28209.5
0.0002 3.86054e+015 8.92412e+015 0.000811274 5.6419 -17153.9
0.0003 6.04231e+015 9.38133e+015 0.000534971 6.89916 -9551.59
0.0004 7.74462e+015 9.66822e+015 0.000308194 7.55221 -4790.2
0.0005 8.81587e+015 9.75851e+015 0.000151028 7.8572 -2196.96
0.0006 9.46011e+015 9.99123e+015 8.50943e-005 7.99161 -863.563
0.0007 9.76596e+015 9.96902e+015 3.25344e-005 8.02991 -199.308
0.0008 9.81144e+015 9.92584e+015 1.83292e-005 8.03147 87.9207
0.0009 1.00684e+016 9.9774e+015 -1.4584e-005 8.01233 109.07
0.001 1.00004e+016 1.00497e+016 7.90196e-006 8.00965 71.3357
0.0011 9.92624e+015 9.97645e+015 8.04561e-006 7.99806 161.392
0.0012 1.00492e+016 1.00067e+016 -6.80474e-006 7.97738 168.4
0.0013 9.97746e+015 9.90449e+015 -1.16903e-005 7.96438 63.9573
0.0014 9.9674e+015 1.01321e+016 2.63932e-005 7.96458 146.985
0.0015 1.01144e+016 9.97842e+015 -2.17912e-005 7.93498 172.973
0.0016 1.0039e+016 1.00438e+016 7.68813e-007 7.92999 54.2591
0.0017 1.01133e+016 1.00009e+016 -1.80058e-005 7.92413 -43.0788
0.0018 1.00058e+016 9.91377e+015 -1.47375e-005 7.9386 -227.982
0.0019 9.95038e+015 9.97493e+015 3.933e-006 7.96973 -288.995
0.002 9.90903e+015 1.00584e+016 2.39271e-005 7.9964 -131.668
0.0021 9.86442e+015 9.92767e+015 1.01341e-005 7.99606 60.6776
0.0022 9.97013e+015 1.00394e+016 1.10954e-005 7.98427 180.562
0.0023 9.81167e+015 9.96021e+015 2.37972e-005 7.95995 377.602
0.0024 1.01208e+016 1.00557e+016 -1.04401e-005 7.90875 453.03
0.0025 1.03046e+016 1.00336e+016 -4.34208e-005 7.86934 148.875
0.0026 9.99291e+015 1.00192e+016 4.21875e-006 7.87897 -72.5009
0.0027 9.98393e+015 9.93703e+015 -7.5142e-006 7.88384 -91.1104
0.0028 1.01093e+016 1.00754e+016 -5.43106e-006 7.8972 -164.213
0.0029 9.85069e+015 9.92764e+015 1.23282e-005 7.91668 -125.265
0.003 9.97244e+015 1.00676e+016 1.52515e-005 7.92225 30.4793
0.0031 1.03277e+016 9.9204e+015 -6.52519e-005 7.91059 -251.875
0.0032 1.01137e+016 1.0033e+016 -1.29306e-005 7.97262 -693.375
0.0033 9.90616e+015 9.9755e+015 1.11104e-005 8.04926 -703.654
0.0034 1.00423e+016 1.00989e+016 9.06697e-006 8.11335 -589.712
0.0035 1.01332e+016 9.92986e+015 -3.25721e-005 8.1672 -722.447
0.0036 9.85816e+015 9.90824e+015 8.0248e-006 8.25784 -861.066
0.0037 1.00078e+016 1.00485e+016 6.51315e-006 8.33942 -778.97
0.0038 9.86412e+015 1.01214e+016 4.12128e-005 8.41364 -509.46
0.0039 9.8358e+015 9.94844e+015 1.80457e-005 8.44131 -174.824
0.004 9.80667e+015 9.89907e+015 1.48039e-005 8.4486 10.6787
0.0041 1.00199e+016 9.95273e+015 -1.0761e-005 8.43917 33.5094
0.0042 9.82283e+015 1.01245e+016 4.83335e-005 8.4419 245.683
0.0043 1.01415e+016 9.9531e+015 -3.01846e-005 8.39004 348.171
0.0044 9.92378e+015 1.00413e+016 1.88276e-005 8.37227 284.037
0.0045 1.01464e+016 1.00106e+016 -2.17628e-005 8.33323 267.462
0.0046 9.93253e+015 1.00269e+016 1.51216e-005 8.31877 229.959
0.0047 9.89575e+015 9.87951e+015 -2.60182e-006 8.28724 300.659
0.0048 1.00395e+016 1.00882e+016 7.79238e-006 8.25864 329.97
0.0049 1.01033e+016 9.89358e+015 -3.35931e-005 8.22124 184.273
0.005 9.97976e+015 1.01312e+016 2.42667e-005 8.22179 131.606
0.0051 9.9871e+015 9.96158e+015 -4.08973e-006 8.19492 245.546
0.0052 1.01383e+016 1.0079e+016 -9.50582e-006 8.17268 168.772
0.0053 1.02502e+016 9.99964e+015 -4.01441e-005 8.16117 -111.604
0.0054 1.00661e+016 9.90727e+015 -2.54536e-005 8.195 -482.037
0.0055 9.94744e+015 9.94637e+015 -1.71172e-007 8.25758 -626.741
0.0056 9.73661e+015 1.00088e+016 4.36131e-005 8.32035 -381.422
0.0057 9.91631e+015 1.00238e+016 1.72201e-005 8.33386 -37.894
0.0058 1.00907e+016 9.98294e+015 -1.72647e-005 8.32793 -38.1456
0.0059 9.93122e+015 1.00036e+016 1.16003e-005 8.34149 -70.1324
0.006 9.91322e+015 1.00252e+016 1.7943e-005 8.34195 96.6999
0.0061 9.93673e+015 1.00114e+016 1.19621e-005 8.32215 265.575
0.0062 9.99778e+015 1.00298e+016 5.13586e-006 8.28884 362.128
0.0063 1.01414e+016 9.97525e+015 -2.66222e-005 8.24972 240.794
0.0064 9.85161e+015 9.99084e+015 2.23059e-005 8.24068 216.42
0.0065 9.78583e+015 9.89274e+015 1.71296e-005 8.20644 439.114
0.0066 9.94821e+015 1.01265e+016 2.85612e-005 8.15286 697.132
0.0067 1.00843e+016 9.91217e+015 -2.75751e-005 8.06701 702.7
0.0068 1.00657e+016 1.00445e+016 -3.39747e-006 8.01232 527.797
0.0069 1.02915e+016 1.00234e+016 -4.2962e-005 7.96145 266.003
0.007 9.99296e+015 1.0014e+016 3.37682e-006 7.95912 42.4635
0.0071 9.93035e+015 9.99078e+015 9.68284e-006 7.95296 116.212
0.0072 9.97096e+015 1.00759e+016 1.68048e-005 7.93587 265.789
0.0073 1.00773e+016 9.99272e+015 -1.35558e-005 7.8998 284.136
0.0074 1.01258e+016 9.91996e+015 -3.2976e-005 7.87905 21.3689
0.0075 9.89504e+015 1.00458e+016 2.41477e-005 7.89553 -28.4853
0.0076 9.87193e+015 9.99389e+015 1.95394e-005 7.88474 218.218
0.0077 9.92762e+015 9.86726e+015 -9.67097e-006 7.85189 273.945
0.0078 1.01662e+016 9.95765e+015 -3.34213e-005 7.82995 30.6018
0.0079 1.01554e+016 1.00375e+016 -1.88847e-005 7.84577 -264.772
0.008 9.91982e+015 1.01055e+016 2.97499e-005 7.88291 -203.416
0.0081 9.97372e+015 1.00399e+016 1.06051e-005 7.88645 24.4708
0.0082 1.00142e+016 9.97863e+015 -5.69599e-006 7.87801 52.1928
0.0083 9.95261e+015 9.89964e+015 -8.48533e-006 7.87601 -27.8898
0.0084 9.95444e+015 1.00618e+016 1.72069e-005 7.88359 21.3611
0.0085 1.0184e+016 9.99892e+015 -2.96572e-005 7.87174 -48.9465
0.0086 1.00423e+016 1.00238e+016 -2.95947e-006 7.89338 -233.134
0.0087 1.00727e+016 9.93099e+015 -2.27026e-005 7.91837 -378.049
0.0088 9.76295e+015 9.96423e+015 3.22478e-005 7.96899 -324.147
0.0089 1.00364e+016 1.00955e+016 9.458e-006 7.98319 -88.6322
0.009 1.0019e+016 9.97186e+015 -7.55824e-006 7.98672 -77.9042
0.0091 9.98766e+015 1.0058e+016 1.12769e-005 7.99878 -56.9048
0.0092 9.95394e+015 1.01021e+016 2.3732e-005 7.9981 140.792
0.0093 9.75184e+015 9.83236e+015 1.28998e-005 7.97062 347.654
0.0094 9.29311e+015 9.79381e+015 8.02215e-005 7.92857 873.514
0.0095 8.88358e+015 9.91658e+015 0.000165504 7.79591 2261.14
0.0096 7.88191e+015 9.54796e+015 0.00026693 7.47634 4703.11
0.0097 6.14794e+015 9.45489e+015 0.000529831 6.85529 9202.46
0.0098 3.68601e+015 8.9271e+015 0.000839714 5.63585 16936.3
0.0099 1.61016e+015 8.79551e+015 0.00115122 3.46802 28179.2
0.01 4.70639e+014 8.52252e+015 0.00129005 0 34680.2
ZONE I=101 T=ZONE_003000
0 4.51469e+014 7.51666e+015 0.00113197 0 -29624.1
0.0001 1.80602e+015 7.69015e+015 0.000942741 2.96241 -24300.4
0.0002 3.98249e+015 7.98536e+015 0.00064133 4.86007 -15355
0.0003 5.96406e+015 8.73224e+015 0.000443512 6.03341 -9228.88
0.0004 7.71959e+015 9.23014e+015 0.000242017 6.70585 -5357.66
0.0005 8.65686e+015 9.51111e+015 0.000136867 7.10494 -3218.09
0.0006 9.16403e+015 9.86271e+015 0.000111941 7.34946 -1813.06
0.0007 9.60208e+015 9.93972e+015 5.40951e-005 7.46756 -875.444
0.0008 9.78634e+015 9.78658e+015 3.87073e-008 7.52455 -569.748
0.0009 9.88754e+015 1.00795e+016 3.07608e-005 7.58151 -395.822
0.001 9.89657e+015 9.97865e+015 1.31503e-005 7.60372 -147.854
0.0011 9.89e+015 1.00332e+016 2.29362e-005 7.61108 55.9281
0.0012 1.00353e+016 9.92768e+015 -1.72401e-005 7.59253 88.0946
0.0013 1.00189e+016 9.97348e+015 -7.27508e-006 7.59346 -50.3435
0.0014 9.98199e+015 1.00688e+016 1.39105e-005 7.6026 -12.8728
0.0015 1.00648e+016 1.00248e+016 -6.42111e-006 7.59603 29.4204
0.0016 1.0002e+016 1.008e+016 1.24964e-005 7.59672 63.728
0.0017 1.00217e+016 9.94494e+015 -1.22977e-005 7.58329 64.8501
0.0018 9.98361e+015 9.90098e+015 -1.32377e-005 7.58375 -79.3498
0.0019 9.85822e+015 9.98129e+015 1.97187e-005 7.59916 -42.7514
0.002 9.97522e+015 1.00411e+016 1.05487e-005 7.5923 128.17
0.0021 1.02405e+016 9.9876e+015 -4.05181e-005 7.57352 -41.0688
0.0022 9.96117e+015 9.95413e+015 -1.12767e-006 7.60051 -276.244
0.0023 1.00015e+016 1.00041e+016 4.11674e-007 7.62877 -280.288
0.0024 1.00855e+016 1.00729e+016 -2.0219e-006 7.65657 -289.381
0.0025 1.02178e+016 1.00389e+016 -2.86587e-005 7.68665 -462.635
0.0026 1.00593e+016 1.00006e+016 -9.39865e-006 7.74909 -677.547
0.0027 1.00552e+016 9.98693e+015 -1.09316e-005 7.82216 -792.353
0.0028 9.84406e+015 1.00214e+016 2.84165e-005 7.90757 -693.615
0.0029 9.85912e+015 9.92648e+015 1.07928e-005 7.96088 -472.199
0.003 9.91185e+015 1.01023e+016 3.0517e-005 8.00201 -238.92
0.0031 9.7707e+015 9.93801e+015 2.68073e-005 8.00866 84.7925
0.0032 1.00174e+016 9.93407e+015 -1.33432e-005 7.98505 160.825
0.0033 9.96649e+015 1.00589e+016 1.4811e-005 7.9765 169.114
0.0034 9.8447e+015 1.00683e+016 3.58213e-005 7.95122 455.036
0.0035 9.95071e+015 9.9677e+015 2.72138e-006 7.88549 672.688
0.0036 1.00849e+016 9.86516e+015 -3.52057e-005 7.81669 489.248
0.0037 1.00429e+016 1.00278e+016 -2.43237e-006 7.78764 276.703
0.0038 1.00234e+016 1.02136e+016 3.04607e-005 7.76135 434.981
0.0039 9.96418e+015 9.86732e+015 -1.55178e-005 7.70065 519.364
0.004 9.87577e+015 9.89677e+015 3.3653e-006 7.65747 450.738
0.0041 1.00037e+016 9.97624e+015 -4.39164e-006 7.6105 444.942
0.0042 1.00493e+016 1.01061e+016 9.10722e-006 7.56848 471.572
0.0043 1.02422e+016 9.9592e+015 -4.53438e-005 7.51618 266.942
0.0044 1.01475e+016 1.00301e+016 -1.88157e-005 7.5151 -95.3694
0.0045 1.00457e+016 1.00571e+016 1.82681e-006 7.53526 -191.306
0.0046 9.97272e+015 9.99552e+015 3.65362e-006 7.55336 -160.358
0.0047 9.9077e+015 9.86763e+015 -6.42008e-006 7.56733 -175.98
0.0048 9.92204e+015 1.01013e+016 2.8728e-005 7.58855 -50.0064
0.0049 9.84326e+015 9.91007e+015 1.07042e-005 7.57733 172.669
0.005 1.01114e+016 1.00913e+016 -3.21271e-006 7.55402 214.974
0.0051 1.00411e+016 9.98744e+015 -8.60059e-006 7.53434 148.264
0.0052 1.01516e+016 1.01422e+016 -1.51027e-006 7.52437 91.1673
0.0053 1.00532e+016 9.95607e+015 -1.55688e-005 7.5161 -5.27874
0.0054 9.85359e+015 9.88691e+015 5.33782e-006 7.52542 -63.0533
0.0055 9.88966e+015 9.92688e+015 5.96213e-006 7.52871 0.758009
0.0056 1.00397e+016 9.99262e+015 -7.53433e-006 7.52527 -8.1203
0.0057 1.01617e+016 1.00809e+016 -1.29544e-005 7.53034 -123.821
0.0058 1.01027e+016 9.9196e+015 -2.93358e-005 7.55003 -362.636
0.0059 1.00922e+016 1.00269e+016 -1.04568e-005 7.60286 -587.347
0.006 1.01204e+016 1.0056e+016 -1.03269e-005 7.6675 -704.713
0.0061 9.96892e+015 9.99721e+015 4.53323e-006 7.74381 -737.431
0.0062 9.88757e+015 1.00223e+016 2.15926e-005 7.81499 -589.897
0.0063 9.87864e+015 9.99113e+015 1.8024e-005 7.86179 -366.18
0.0064 9.94283e+015 9.95586e+015 2.0871e-006 7.88823 -252.611
0.0065 1.00804e+016 9.89788e+015 -2.92367e-005 7.91231 -405.927
0.0066 1.00656e+016 1.01216e+016 8.97252e-006 7.96941 -520.36
0.0067 9.80283e+015 9.96954e+015 2.67098e-005 8.01638 -318.86
0.0068 9.93994e+015 9.94846e+015 1.36577e-006 8.03318 -160.316
0.0069 9.97848e+015 1.00978e+016 1.91228e-005 8.04844 -44.6167
0.007 9.76489e+015 1.00215e+016 4.11157e-005 8.04211 295.553
0.0071 1.00091e+016 9.99189e+015 -2.75303e-006 7.98933 512.189
0.0072 9.97193e+015 1.00726e+016 1.61287e-005 7.93967 587.722
0.0073 1.00428e+016 1.0004e+016 -6.20658e-006 7.87179 643.753
0.0074 9.80771e+015 9.92067e+015 1.80982e-005 7.81092 710.905
0.0075 9.91948e+015 1.00169e+016 1.5614e-005 7.72961 901.279
0.0076 9.9776e+015 1.00141e+016 5.84618e-006 7.63066 1022.47
0.0077 9.97735e+015 9.78629e+015 -3.0612e-005 7.52511 882.612
0.0078 1.02439e+016 9.97764e+015 -4.26558e-005 7.45414 468.866
0.0079 1.01603e+016 1.00214e+016 -2.22484e-005 7.43134 102.349
0.008 1.01721e+016 1.01335e+016 -6.19575e-006 7.43367 -58.2766
0.0081 1.0088e+016 1.01188e+016 4.94301e-006 7.443 -65.3508
0.0082 1.00073e+016 9.89734e+015 -1.76185e-005 7.44674 -136.93
0.0083 1.00437e+016 9.91897e+015 -1.99912e-005 7.47038 -349.314
0.0084 1.00154e+016 1.00657e+016 8.0518e-006 7.5166 -416.736
0.0085 9.96721e+015 9.99508e+015 4.46544e-006 7.55373 -346.051
0.0086 9.85935e+015 1.00138e+016 2.47417e-005 7.58581 -181.117
0.0087 9.88673e+015 9.90878e+015 3.5332e-006 7.58995 -21.447
0.0088 1.00641e+016 1.00141e+016 -8.01224e-006 7.5901 -46.7403
0.0089 9.94437e+015 1.00718e+016 2.04223e-005 7.5993 23.3399
0.009 1.00309e+016 9.99803e+015 -5.27107e-006 7.58543 108.9
0.0091 9.89759e+015 1.00303e+016 2.12634e-005 7.57752 199.209
0.0092 9.62064e+015 1.00639e+016 7.10258e-005 7.54559 720.37
0.0093 9.51267e+015 9.80415e+015 4.66991e-005 7.43345 1385.17
0.0094 9.31794e+015 9.63635e+015 5.10145e-005 7.26856 1936.96
0.0095 8.68288e+015 9.63668e+015 0.000152815 7.04606 3088
0.0096 7.59027e+015 9.08835e+015 0.00024002 6.65096 5306.36
0.0097 6.14551e+015 8.83466e+015 0.000430849 5.98478 9094.78
0.0098 4.02567e+015 8.03472e+015 0.00064232 4.832 15155
0.0099 1.7273e+015 7.67121e+015 0.000952319 2.95378 24160
0.01 5.04833e+014 7.52151e+015 0.0011242 0 29537.8
ZONE I=101 T=ZONE_004000
0 7.92788e+014 6.55764e+015 0.000923631 0 -26251.1
0.0001 2.09165e+015 6.60742e+015 0.000723506 2.62511 -22165.5
0.0002 3.92604e+015 7.15617e+015 0.000517523 4.43309 -15157.3
0.0003 5.49509e+015 8.08577e+015 0.000415072 5.65658 -9890.9
0.0004 7.24818e+015 8.70422e+015 0.000233284 6.41127 -6229.6
0.0005 8.2244e+015 9.17008e+015 0.000151514 6.9025 -4056.63
0.0006 8.85381e+015 9.69925e+015 0.000135455 7.2226 -2436.1
0.0007 9.18471e+015 9.76653e+015 9.3217e-005 7.38972 -1144.78
0.0008 9.67608e+015 9.76498e+015 1.42436e-005 7.45156 -537.949
0.0009 9.85072e+015 1.00925e+016 3.87407e-005 7.49731 -238.745
0.001 1.00238e+016 9.92737e+015 -1.54425e-005 7.4993 -107.179
0.0011 9.74399e+015 1.00697e+016 5.21855e-005 7.51874 100.311
0.0012 9.83533e+015 9.88929e+015 8.64497e-006 7.47924 443.823
0.0013 1.0088e+016 9.99207e+015 -1.53747e-005 7.42998 405.82
0.0014 9.85935e+015 1.00442e+016 2.9618e-005 7.39808 486.253
0.0015 1.00388e+016 1.00563e+016 2.79845e-006 7.33273 669.309
0.0016 9.9602e+015 1.01037e+016 2.29916e-005 7.26422 814.947
0.0017 9.93553e+015 9.87436e+015 -9.8e-006 7.16974 889.441
0.0018 1.00543e+016 9.93462e+015 -1.91678e-005 7.08633 725.858
0.0019 9.95086e+015 9.9597e+015 1.41634e-006 7.02457 625.614
0.002 9.89221e+015 1.0003e+016 1.77462e-005 6.96121 733.826
0.0021 1.01231e+016 1.00643e+016 -9.40845e-006 6.8778 780.91
0.0022 1.00758e+016 9.92459e+015 -2.42246e-005 6.80502 590.982
0.0023 9.97687e+015 9.97316e+015 -5.9506e-007 6.7596 450.825
0.0024 1.03021e+016 1.01287e+016 -2.77769e-005 6.71486 290.607
0.0025 9.99172e+015 1.00027e+016 1.76591e-006 6.70148 143.722
0.0026 9.98988e+015 1.00562e+016 1.06189e-005 6.68611 213.66
0.0027 1.00803e+016 9.95809e+015 -1.95826e-005 6.65875 163.041
0.0028 9.96033e+015 1.00138e+016 8.57134e-006 6.65351 100.86
0.0029 1.01953e+016 9.90118e+015 -4.71254e-005 6.63858 -116.856
0.003 1.00956e+016 1.01402e+016 7.13986e-006 6.67688 -342.656
0.0031 9.82563e+015 9.95208e+015 2.02597e-005 6.70711 -187.93
0.0032 1.01403e+016 9.88458e+015 -4.09767e-005 6.71446 -304.919
0.0033 9.85291e+015 1.01114e+016 4.14118e-005 6.76809 -302.463
0.0034 9.9868e+015 1.00197e+016 5.27795e-006 6.77496 -38.8033
0.0035 1.00238e+016 9.99496e+015 -4.62853e-006 6.77586 -35.136
0.0036 9.86437e+015 9.87272e+015 1.33893e-006 6.78198 -53.7126
0.0037 1.00795e+016 1.00131e+016 -1.06354e-005 6.7866 -106.21
0.0038 9.99003e+015 1.02089e+016 3.50745e-005 6.80322 31.7986
0.0039 9.95742e+015 9.86079e+015 -1.54815e-005 6.78024 142.441
0.004 9.89632e+015 9.9138e+015 2.80138e-006 6.77474 70.8354
0.0041 9.80412e+015 9.95958e+015 2.49081e-005 6.76607 227.312
0.0042 9.85209e+015 1.00964e+016 3.91458e-005 6.72927 589.027
0.0043 1.00669e+016 9.95828e+015 -1.73999e-005 6.64827 711.827
0.0044 1.01202e+016 1.0047e+016 -1.17242e-005 6.58691 547.362
0.0045 1.00714e+016 1.00716e+016 3.85353e-008 6.53879 481.373
0.0046 1.00313e+016 9.97383e+015 -9.21147e-006 6.49063 429.573
0.0047 1.009e+016 9.85463e+015 -3.77154e-005 6.45288 164.575
0.0048 1.00711e+016 1.01103e+016 6.2883e-006 6.45772 -12.8951
0.0049 1.00685e+016 9.95785e+015 -1.77269e-005 6.45546 -77.4894
0.005 1.00595e+016 9.99668e+015 -1.00582e-005 6.47322 -234.393
0.0051 1.00688e+016 1.01062e+016 5.99068e-006 6.50234 -257.363
0.0052 9.83533e+015 1.00868e+016 4.0285e-005 6.52469 3.95807
0.0053 1.00783e+016 9.95928e+015 -1.90653e-005 6.50154 123.787
0.0054 1.00965e+016 9.87168e+015 -3.60239e-005 6.49993 -187.305
0.0055 1.01104e+016 9.93321e+015 -2.83829e-005 6.53901 -551.013
0.0056 9.81935e+015 9.9794e+015 2.56433e-005 6.61013 -566.484
0.0057 1.00222e+016 1.00714e+016 7.88356e-006 6.6523 -377.156
0.0058 1.00077e+016 9.90898e+015 -1.58242e-005 6.68557 -421.998
0.0059 9.9733e+015 1.0038e+016 1.03603e-005 6.7367 -452.853
0.006 1.0043e+016 1.01108e+016 1.08649e-005 6.77614 -332.993
0.0061 1.00121e+016 9.93988e+015 -1.15671e-005 6.8033 -336.959
0.0062 9.86662e+015 1.00486e+016 2.91585e-005 6.84353 -237.62
0.0063 9.81407e+015 9.94463e+015 2.09174e-005 6.85082 45.1612
0.0064 9.9182e+015 9.97714e+015 9.44406e-006 6.8345 216.614
0.0065 9.99927e+015 9.9259e+015 -1.17558e-005 6.8075 203.559
0.0066 9.93909e+015 1.0097e+016 2.5303e-005 6.79378 280.061
0.0067 9.96507e+015 9.99593e+015 4.9449e-006 6.75149 450.872
0.0068 9.99463e+015 9.88893e+015 -1.69347e-005 6.70361 383.165
0.0069 1.00693e+016 1.01451e+016 1.21422e-005 6.67486 356.102
0.007 1.00751e+016 1.00647e+016 -1.65891e-006 6.63239 415.302
0.0071 1.00413e+016 9.95519e+015 -1.37961e-005 6.5918 328.027
0.0072 1.00578e+016 1.00851e+016 4.37547e-006 6.56678 274.828
0.0073 1.01602e+016 9.98272e+015 -2.84339e-005 6.53683 138.969
0.0074 1.00418e+016 9.99205e+015 -7.97233e-006 6.53899 -66.6186
0.0075 1.00413e+016 9.95631e+015 -1.36191e-005 6.55015 -188.546
0.0076 1.02105e+016 9.96645e+015 -3.91074e-005 6.5767 -486.296
0.0077 1.00403e+016 9.807e+015 -3.73842e-005 6.64741 -918.247
0.0078 9.92047e+015 9.94316e+015 3.63453e-006 6.76035 -1108.83
0.0079 9.95381e+015 1.00185e+016 1.03617e-005 6.86918 -1029.8
0.008 9.89871e+015 1.01848e+016 4.58353e-005 6.96631 -712.449
0.0081 9.96441e+015 1.01422e+016 2.84901e-005 7.01167 -292.73
0.0082 1.01241e+016 9.85406e+015 -4.32606e-005 7.02485 -376.14
0.0083 9.95831e+015 9.94286e+015 -2.47434e-006 7.0869 -634.408