VARIABLES = x nde ndi rho phi ef
ZONE I=101 T=ZONE_000000
0 1.0002e+016 1.0002e+016 0 0 -0
0.0001 1e+016 1e+016 0 0 -0
0.0002 1e+016 1e+016 0 0 -0
0.0003 1e+016 1e+016 0 0 -0
0.0004 1e+016 1e+016 0 0 -0
0.0005 1e+016 1e+016 0 0 -0
0.0006 1e+016 1e+016 0 0 -0
0.0007 1e+016 1e+016 0 0 -0
0.0008 1e+016 1e+016 0 0 -0
0.0009 1e+016 1e+016 0 0 -0
0.001 1e+016 1e+016 0 0 -0
0.0011 1e+016 1e+016 0 0 -0
0.0012 1e+016 1e+016 0 0 -0
0.0013 1e+016 1e+016 0 0 -0
0.0014 1e+016 1e+016 0 0 -0
0.0015 1e+016 1e+016 0 0 -0
0.0016 1e+016 1e+016 0 0 -0
0.0017 1e+016 1e+016 0 0 -0
0.0018 1e+016 1e+016 0 0 -0
0.0019 1e+016 1e+016 0 0 -0
0.002 1e+016 1e+016 0 0 -0
0.0021 1e+016 1e+016 0 0 -0
0.0022 1e+016 1e+016 0 0 -0
0.0023 1e+016 1e+016 0 0 -0
0.0024 1e+016 1e+016 0 0 -0
0.0025 1e+016 1e+016 0 0 -0
0.0026 1e+016 1e+016 0 0 -0
0.0027 1e+016 1e+016 0 0 -0
0.0028 1e+016 1e+016 0 0 -0
0.0029 1e+016 1e+016 0 0 -0
0.003 1e+016 1e+016 0 0 -0
0.0031 1e+016 1e+016 0 0 -0
0.0032 1e+016 1e+016 0 0 -0
0.0033 1e+016 1e+016 0 0 -0
0.0034 1e+016 1e+016 0 0 -0
0.0035 1e+016 1e+016 0 0 -0
0.0036 1e+016 1e+016 0 0 -0
0.0037 1e+016 1e+016 0 0 -0
0.0038 1e+016 1e+016 0 0 -0
0.0039 1e+016 1e+016 0 0 -0
0.004 1e+016 1e+016 0 0 -0
0.0041 1e+016 1e+016 0 0 -0
0.0042 1e+016 1e+016 0 0 -0
0.0043 1e+016 1e+016 0 0 -0
0.0044 1e+016 1e+016 0 0 -0
0.0045 1e+016 1e+016 0 0 -0
0.0046 1e+016 1e+016 0 0 -0
0.0047 1e+016 1e+016 0 0 -0
0.0048 1e+016 1e+016 0 0 -0
0.0049 1e+016 1e+016 0 0 -0
0.005 1e+016 1e+016 0 0 -0
0.0051 1e+016 1e+016 0 0 -0
0.0052 1e+016 1e+016 0 0 -0
0.0053 1e+016 1e+016 0 0 -0
0.0054 1e+016 1e+016 0 0 -0
0.0055 1e+016 1e+016 0 0 -0
0.0056 1e+016 1e+016 0 0 -0
0.0057 1e+016 1e+016 0 0 -0
0.0058 1e+016 1e+016 0 0 -0
0.0059 1e+016 1e+016 0 0 -0
0.006 1e+016 1e+016 0 0 -0
0.0061 1e+016 1e+016 0 0 -0
0.0062 1e+016 1e+016 0 0 -0
0.0063 1e+016 1e+016 0 0 -0
0.0064 1e+016 1e+016 0 0 -0
0.0065 1e+016 1e+016 0 0 -0
0.0066 1e+016 1e+016 0 0 -0
0.0067 1e+016 1e+016 0 0 -0
0.0068 1e+016 1e+016 0 0 -0
0.0069 1e+016 1e+016 0 0 -0
0.007 1e+016 1e+016 0 0 -0
0.0071 1e+016 1e+016 0 0 -0
0.0072 1e+016 1e+016 0 0 -0
0.0073 1e+016 1e+016 0 0 -0
0.0074 1e+016 1e+016 0 0 -0
0.0075 1e+016 1e+016 0 0 -0
0.0076 1e+016 1e+016 0 0 -0
0.0077 1e+016 1e+016 0 0 -0
0.0078 1e+016 1e+016 0 0 -0
0.0079 1e+016 1e+016 0 0 -0
0.008 1e+016 1e+016 0 0 -0
0.0081 1e+016 1e+016 0 0 -0
0.0082 1e+016 1e+016 0 0 -0
0.0083 1e+016 1e+016 0 0 -0
0.0084 1e+016 1e+016 0 0 -0
0.0085 1e+016 1e+016 0 0 -0
0.0086 1e+016 1e+016 0 0 -0
0.0087 1e+016 1e+016 0 0 -0
0.0088 1e+016 1e+016 0 0 -0
0.0089 1e+016 1e+016 0 0 -0
0.009 1e+016 1e+016 0 0 -0
0.0091 1e+016 1e+016 0 0 -0
0.0092 1e+016 1e+016 0 0 -0
0.0093 1e+016 1e+016 0 0 -0
0.0094 1e+016 1e+016 0 0 -0
0.0095 1e+016 1e+016 0 0 -0
0.0096 1e+016 1e+016 0 0 -0
0.0097 1e+016 1e+016 0 0 -0
0.0098 1e+016 1e+016 0 0 -0
0.0099 1e+016 1e+016 0 0 -0
0.01 9.998e+015 9.998e+015 0 0 -0
ZONE I=101 T=ZONE_001000
0 1.31596e+014 8.83741e+015 0.00139483 0 -38653.7
0.0001 1.11037e+015 9.73639e+015 0.00138204 3.86537 -30849.3
0.0002 3.64709e+015 9.75401e+015 0.000978436 6.16985 -17519.5
0.0003 6.61244e+015 9.81674e+015 0.000513386 7.36928 -9095.15
0.0004 8.1874e+015 9.91148e+015 0.000276229 7.98888 -4636.15
0.0005 8.99089e+015 9.95418e+015 0.000154337 8.29651 -2204.73
0.0006 9.62439e+015 1.00302e+016 6.501e-005 8.42982 -966.068
0.0007 9.78915e+015 9.96853e+015 2.87396e-005 8.48972 -436.66
0.0008 9.87014e+015 9.98053e+015 1.7687e-005 8.51716 -174.487
0.0009 9.91597e+015 1.00292e+016 1.81417e-005 8.52462 27.8395
0.001 9.8501e+015 9.98053e+015 2.08968e-005 8.51159 248.292
0.0011 9.95356e+015 1.0024e+016 1.12912e-005 8.47496 430.059
0.0012 1.00004e+016 9.97647e+015 -3.82714e-006 8.42558 472.209
0.0013 9.95187e+015 9.99574e+015 7.02929e-006 8.38052 490.291
0.0014 9.90103e+015 1.0017e+016 1.8578e-005 8.32752 634.897
0.0015 1.00002e+016 9.95033e+015 -7.99555e-006 8.25354 694.657
0.0016 1.00232e+016 1.00649e+016 6.68653e-006 8.18859 687.265
0.0017 1.00604e+016 9.9694e+015 -1.45788e-005 8.11609 642.697
0.0018 1.01957e+016 1.00361e+016 -2.5576e-005 8.06005 415.941
0.0019 1.02907e+016 9.96838e+015 -5.1638e-005 8.0329 -20.0897
0.002 1.0072e+016 1.00262e+016 -7.34532e-006 8.06407 -353.171
0.0021 9.91407e+015 1.00312e+016 1.87596e-005 8.10353 -288.714
0.0022 1.00957e+016 9.94698e+015 -2.3823e-005 8.12181 -317.307
0.0023 1.00458e+016 1.00415e+016 -6.95189e-007 8.16699 -455.763
0.0024 9.87928e+015 9.94108e+015 9.9019e-006 8.21296 -403.772
0.0025 1.0173e+016 9.96075e+015 -3.40096e-005 8.24775 -539.909
0.0026 1.00416e+016 1.00299e+016 -1.86617e-006 8.32094 -742.501
0.0027 9.76044e+015 1.00232e+016 4.20936e-005 8.39625 -515.335
0.0028 9.94337e+015 9.98725e+015 7.0306e-006 8.42401 -237.928
0.0029 1.00291e+016 1.00342e+016 8.11237e-007 8.44383 -193.645
0.003 9.9426e+015 1.00039e+016 9.81546e-006 8.46274 -133.635
0.0031 9.85361e+015 9.9508e+015 1.55705e-005 8.47056 9.72025
0.0032 1.00863e+016 9.9975e+015 -1.42225e-005 8.4608 17.3323
0.0033 9.98017e+015 1.00251e+016 7.19331e-006 8.46709 -22.3619
0.0034 9.91419e+015 9.98248e+015 1.09423e-005 8.46527 80.0506
0.0035 1.02116e+016 1.00292e+016 -2.92354e-005 8.45108 -23.2514
0.0036 1.01224e+016 1.00454e+016 -1.23437e-005 8.46992 -258.05
0.0037 9.96548e+015 9.9811e+015 2.50225e-006 8.50269 -313.625
0.0038 1.01093e+016 9.93541e+015 -2.78608e-005 8.53264 -456.827
0.0039 1.00829e+016 1.00173e+016 -1.05092e-005 8.59406 -673.504
0.004 9.91514e+015 9.9882e+015 1.17043e-005 8.66734 -666.755
0.0041 9.93317e+015 1.00447e+016 1.78683e-005 8.72741 -499.757
0.0042 1.02165e+016 9.96579e+015 -4.01691e-005 8.7673 -625.691
0.0043 9.93524e+015 1.00334e+016 1.57273e-005 8.85255 -763.714
0.0044 9.82662e+015 1.00341e+016 3.32429e-005 8.92004 -487.177
0.0045 1.01175e+016 9.97797e+015 -2.23492e-005 8.94998 -425.66
0.0046 9.89524e+015 9.95179e+015 9.06044e-006 9.00517 -500.702
0.0047 9.94048e+015 9.97833e+015 6.06468e-006 9.05012 -415.29
0.0048 9.84448e+015 9.98621e+015 2.27073e-005 9.08823 -252.814
0.0049 9.96573e+015 1.00354e+016 1.117e-005 9.10069 -61.5066
0.005 9.91381e+015 1.00363e+016 1.96226e-005 9.10053 112.381
0.0051 9.97309e+015 1.00183e+016 7.24825e-006 9.07821 264.122
0.0052 9.94111e+015 9.96473e+015 3.7837e-006 9.04771 326.42
0.0053 9.98244e+015 9.99154e+015 1.45787e-006 9.01293 356.019
0.0054 9.96108e+015 9.95578e+015 -8.49498e-007 8.9765 359.455
0.0055 1.00533e+016 1.0004e+016 -7.88732e-006 8.94104 310.117
0.0056 9.83802e+015 1.00897e+016 4.03219e-005 8.91448 493.277
0.0057 9.90377e+015 9.95529e+015 8.25458e-006 8.84238 767.59
0.0058 1.00391e+016 9.98628e+015 -8.45787e-006 8.76096 766.442
0.0059 1.01172e+016 1.00027e+016 -1.83519e-005 8.68909 615.046
0.006 9.99042e+015 9.97602e+015 -2.30659e-006 8.63795 498.387
0.0061 9.94634e+015 1.0014e+016 1.08369e-005 8.58941 546.557
0.0062 1.01949e+016 1.00571e+016 -2.2078e-005 8.52864 483.078
0.0063 9.99475e+015 9.99713e+015 3.8086e-007 8.4928 360.553
0.0064 9.98515e+015 9.97881e+015 -1.01531e-006 8.45653 356.97
0.0065 1.0083e+016 9.96251e+015 -1.93008e-005 8.4214 242.244
0.0066 1.00784e+016 9.99067e+015 -1.40546e-005 8.40808 53.8841
0.0067 1.00286e+016 9.97299e+015 -8.91306e-006 8.41063 -75.8155
0.0068 1.00165e+016 1.00642e+016 7.64254e-006 8.42324 -82.9902
0.0069 9.94074e+015 1.00359e+016 1.52523e-005 8.42723 46.2981
0.007 9.95528e+015 9.99938e+015 7.06546e-006 8.41398 172.328
0.0071 9.88592e+015 9.94362e+015 9.2445e-006 8.39276 264.431
0.0072 1.0038e+016 1.00178e+016 -3.22225e-006 8.3611 298.439
0.0073 9.8972e+015 9.96812e+015 1.13622e-005 8.33307 344.405
0.0074 9.98732e+015 9.99216e+015 7.74117e-007 8.29222 412.939
0.0075 9.91509e+015 9.99739e+015 1.31857e-005 8.25048 491.771
0.0076 9.954e+015 1.0018e+016 1.02534e-005 8.19386 624.132
0.0077 1.00688e+016 1.00564e+016 -1.9862e-006 8.12566 670.818
0.0078 1.03749e+016 1.00102e+016 -5.84395e-005 8.0597 329.591
0.0079 1.0086e+016 9.96367e+015 -1.95948e-005 8.05974 -111.073
0.008 9.90643e+015 9.9725e+015 1.05863e-005 8.08191 -161.944
0.0081 9.97617e+015 1.00624e+016 1.38207e-005 8.09213 -24.1165
0.0082 1.01552e+016 9.98321e+015 -2.75592e-005 8.08674 -101.698
0.0083 9.95464e+015 9.9551e+015 7.41638e-008 8.11247 -256.907
0.0084 1.01503e+016 1.00214e+016 -2.06467e-005 8.13812 -373.081
0.0085 1.00383e+016 9.99961e+015 -6.19498e-006 8.18709 -524.658
0.0086 9.96622e+015 1.00087e+016 6.80482e-006 8.24305 -521.214
0.0087 1.00653e+016 9.97924e+015 -1.37941e-005 8.29133 -560.683
0.0088 9.91405e+015 9.99654e+015 1.32177e-005 8.35519 -563.937
0.0089 9.92031e+015 9.97779e+015 9.2089e-006 8.40412 -437.294
0.009 9.90563e+015 9.99865e+015 1.49041e-005 8.44264 -301.126
0.0091 9.91551e+015 1.00397e+016 1.9905e-005 8.46434 -104.557
0.0092 9.86018e+015 9.97299e+015 1.80735e-005 8.46356 109.909
0.0093 9.73237e+015 9.98953e+015 4.12019e-005 8.44236 444.641
0.0094 9.61167e+015 9.98194e+015 5.9324e-005 8.37463 1012.31
0.0095 9.156e+015 1.00296e+016 0.000139962 8.2399 2137.69
0.0096 8.23243e+015 9.91673e+015 0.000269854 7.94709 4451.94
0.0097 6.47504e+015 9.86661e+015 0.000543388 7.34951 9044.36
0.0098 3.71979e+015 9.69189e+015 0.000956837 6.13822 17516.2
0.0099 1.12394e+015 9.71366e+015 0.00137622 3.84627 30691.1
0.01 1.25499e+014 8.90126e+015 0.00140603 0 38462.7
ZONE I=101 T=ZONE_002000
0 4.2748e+014 8.37117e+015 0.00127272 0 -35025.6
0.0001 1.60001e+015 8.87539e+015 0.00116565 3.50256 -28443.2
0.0002 3.87306e+015 9.03869e+015 0.000827625 5.68864 -17187.1
0.0003 5.90518e+015 9.3335e+015 0.000549278 6.93999 -9411.68
0.0004 7.75483e+015 9.55626e+015 0.00028862 7.57097 -4680.02
0.0005 8.80108e+015 9.85948e+015 0.000169575 7.87599 -2092.58
0.0006 9.47076e+015 9.94542e+015 7.60489e-005 7.98949 -705.528
0.0007 9.81084e+015 9.94957e+015 2.22271e-005 8.0171 -150.559
0.0008 9.94475e+015 9.95628e+015 1.84779e-006 8.0196 -14.6069
0.0009 9.92443e+015 9.98105e+015 9.07178e-006 8.02002 47.0564
0.001 1.00518e+016 1.00594e+016 1.23304e-006 8.01019 105.248
0.0011 1.00295e+016 9.98591e+015 -6.98952e-006 7.99897 72.7411
0.0012 1.00876e+016 9.97708e+015 -1.77027e-005 7.99564 -66.6967
0.0013 9.93028e+015 1.00041e+016 1.18252e-005 8.01231 -99.887
0.0014 9.94413e+015 9.99436e+015 8.04672e-006 8.01562 12.3306
0.0015 1.00188e+016 9.94899e+015 -1.11927e-005 8.00984 -5.43492
0.0016 9.89274e+015 1.00529e+016 2.56671e-005 8.01671 76.3029
0.0017 1.00254e+016 1.00022e+016 -3.71812e-006 7.99458 200.25
0.0018 1.0027e+016 1.0042e+016 2.39652e-006 7.97666 192.787
0.0019 1.00122e+016 9.96325e+015 -7.84585e-006 7.95602 162.014
0.002 9.95271e+015 1.00563e+016 1.6602e-005 7.94425 211.46
0.0021 9.96974e+015 9.98349e+015 2.20303e-006 7.91373 317.653
0.0022 1.00943e+016 9.9917e+015 -1.64316e-005 7.88072 237.304
0.0023 1.01499e+016 1.00531e+016 -1.5507e-005 7.86627 56.9452
0.0024 9.858e+015 9.90459e+015 7.46373e-006 7.86933 11.5243
0.0025 9.86041e+015 9.88452e+015 3.86395e-006 7.86397 75.4923
0.0026 9.94723e+015 1.00629e+016 1.85279e-005 7.85424 201.94
0.0027 1.023e+016 1.00322e+016 -3.16904e-005 7.82358 127.611
0.0028 1.00701e+016 9.99047e+015 -1.27521e-005 7.82871 -123.358
0.0029 1.00657e+016 1.00805e+016 2.38104e-006 7.84825 -181.923
0.003 1.00533e+016 9.99316e+015 -9.63862e-006 7.8651 -222.907
0.0031 1.00309e+016 9.88868e+015 -2.27895e-005 7.89283 -406.03
0.0032 9.98946e+015 1.00276e+016 6.11311e-006 7.9463 -500.202
0.0033 1.01211e+016 1.00296e+016 -1.46618e-005 7.99287 -548.477
0.0034 1.02105e+016 9.99129e+015 -3.51256e-005 8.056 -829.629
0.0035 9.93822e+015 1.00525e+016 1.83142e-005 8.1588 -924.564
0.0036 9.92242e+015 1.00371e+016 1.83767e-005 8.24091 -717.369
0.0037 9.85546e+015 9.9816e+015 2.02086e-005 8.30227 -499.475
0.0038 9.85624e+015 9.91677e+015 9.69718e-006 8.34081 -330.596
0.0039 9.92146e+015 1.00055e+016 1.34634e-005 8.36839 -199.807
0.004 9.82886e+015 1.00159e+016 2.9964e-005 8.38077 45.4296
0.0041 9.92889e+015 1.00363e+016 1.72035e-005 8.3593 311.786
0.0042 1.00376e+016 9.95675e+015 -1.29475e-005 8.31841 335.82
0.0043 9.97972e+015 1.00855e+016 1.69432e-005 8.29214 358.384
0.0044 1.01344e+016 9.98459e+015 -2.40054e-005 8.24673 318.503
0.0045 9.94582e+015 1.00353e+016 1.43431e-005 8.22844 263.94
0.0046 9.94608e+015 9.8836e+015 -1.00103e-005 8.19395 288.407
0.0047 1.00704e+016 9.94127e+015 -2.06852e-005 8.17076 115.068
0.0048 9.97423e+015 9.99291e+015 2.99331e-006 8.17093 15.1613
0.0049 1.00533e+016 1.00604e+016 1.12758e-006 8.16773 38.4321
0.005 1.02044e+016 1.00664e+016 -2.21113e-005 8.16325 -80.0638
0.0051 9.90688e+015 1.00499e+016 2.29175e-005 8.18374 -75.511
0.0052 9.93569e+015 9.90535e+015 -4.86044e-006 8.17835 26.4581
0.0053 1.0127e+016 1.00123e+016 -1.83746e-005 8.17845 -104.751
0.0054 1.00387e+016 9.91859e+015 -1.92468e-005 8.1993 -317.202
0.0055 1.01333e+016 1.00261e+016 -1.71802e-005 8.24189 -522.907
0.0056 9.8872e+015 1.00901e+016 3.25031e-005 8.30388 -436.378
0.0057 9.96989e+015 9.99434e+015 3.9172e-006 8.32916 -230.711
0.0058 1.00358e+016 9.93982e+015 -1.53795e-005 8.35002 -295.439
0.0059 9.8382e+015 9.98634e+015 2.37347e-005 8.38825 -248.257
0.006 9.80467e+015 1.00099e+016 3.28845e-005 8.39967 71.4743
0.0061 9.94035e+015 9.98431e+015 7.04339e-006 8.37396 296.949
0.0062 1.00956e+016 1.01235e+016 4.46826e-006 8.34028 361.956
0.0063 9.75109e+015 9.98128e+015 3.68802e-005 8.30156 595.452
0.0064 9.96283e+015 9.96818e+015 8.56235e-007 8.22119 808.551
0.0065 1.00673e+016 9.93848e+015 -2.06408e-005 8.13985 696.827
0.0066 9.91414e+015 9.97197e+015 9.26485e-006 8.08183 632.586
0.0067 1.00562e+016 9.95835e+015 -1.56749e-005 8.01334 596.389
0.0068 1.02187e+016 1.01158e+016 -1.64934e-005 7.96255 414.733
0.0069 1.00139e+016 1.0071e+016 9.14715e-006 7.93039 373.249
0.007 9.94853e+015 9.98319e+015 5.55293e-006 7.8879 456.261
0.0071 1.01026e+016 9.88545e+015 -3.47897e-005 7.83914 291.16
0.0072 1.00253e+016 1.00692e+016 7.0356e-006 7.82967 134.431
0.0073 9.97844e+015 9.90395e+015 -1.19346e-005 7.81225 106.766
0.0074 1.0068e+016 1.0037e+016 -4.95874e-006 7.80832 11.3685
0.0075 1.0085e+016 9.95252e+015 -2.12323e-005 7.80998 -136.533
0.0076 1.01457e+016 1.00654e+016 -1.28679e-005 7.83562 -329.099
0.0077 1.00165e+016 1.00509e+016 5.49974e-006 7.8758 -370.707
0.0078 9.98413e+015 1.00363e+016 8.36475e-006 7.90976 -292.414
0.0079 9.96691e+015 9.94082e+015 -4.17933e-006 7.93428 -268.778
0.008 9.80755e+015 1.00118e+016 3.27313e-005 7.96352 -107.544
0.0081 1.00411e+016 1.00408e+016 -4.23418e-008 7.95579 77.0521
0.0082 1.00288e+016 9.96486e+015 -1.02381e-005 7.94811 18.9979
0.0083 1.01007e+016 9.96077e+015 -2.24236e-005 7.95199 -165.444
0.0084 1.00673e+016 9.9986e+015 -1.10089e-005 7.9812 -354.239
0.0085 9.92128e+015 1.00728e+016 2.42827e-005 8.02284 -279.281
0.0086 9.92512e+015 9.9332e+015 1.29438e-006 8.03705 -134.846
0.0087 9.93485e+015 9.98945e+015 8.74809e-006 8.04981 -78.1355
0.0088 9.98572e+015 9.96076e+015 -3.99897e-006 8.05268 -51.3171
0.0089 1.00386e+016 1.00008e+016 -6.0499e-006 8.06007 -108.064
0.009 1.0033e+016 1.00001e+016 -5.27599e-006 8.07429 -172.021
0.0091 9.91724e+015 1.00828e+016 2.6524e-005 8.09447 -52.0329
0.0092 9.83427e+015 9.88135e+015 7.54277e-006 8.0847 140.344
0.0093 9.90012e+015 9.97181e+015 1.1486e-005 8.06641 247.8
0.0094 9.35035e+015 9.93861e+015 9.42496e-005 8.03514 844.894
0.0095 8.72625e+015 9.91349e+015 0.000190216 7.89743 2451.28
0.0096 7.90884e+015 9.64944e+015 0.000278874 7.54488 5100.25
0.0097 6.2568e+015 9.35129e+015 0.000495792 6.87738 9474.82
0.0098 3.72557e+015 8.93044e+015 0.000833914 5.64992 16983.7
0.0099 1.58254e+015 8.82948e+015 0.00116109 3.48063 28249.6
0.01 3.72789e+014 8.51394e+015 0.00130436 0 34806.3
ZONE I=101 T=ZONE_003000
0 4.54631e+014 7.76106e+015 0.00117062 0 -29679.9
0.0001 1.84916e+015 7.75448e+015 0.000946136 2.96799 -24337
0.0002 4.03686e+015 8.10576e+015 0.00065191 4.8674 -15312.8
0.0003 5.99848e+015 8.66536e+015 0.000427282 6.03054 -9218.53
0.0004 7.4904e+015 9.12623e+015 0.000262088 6.71111 -5325.62
0.0005 8.69009e+015 9.62457e+015 0.000149719 7.09567 -3000.13
0.0006 9.27643e+015 9.81478e+015 8.6253e-005 7.31113 -1667.58
0.0007 9.6408e+015 9.84959e+015 3.34507e-005 7.42918 -991.608
0.0008 9.82788e+015 9.9353e+015 1.72095e-005 7.50945 -705.528
0.0009 9.92138e+015 9.97161e+015 8.04783e-006 7.57029 -562.899
0.001 9.93644e+015 1.00842e+016 2.36803e-005 7.62203 -383.729
0.0011 9.85463e+015 9.94006e+015 1.36864e-005 7.64703 -172.718
0.0012 9.74184e+015 1.0022e+016 4.48847e-005 7.65658 158.036
0.0013 1.00661e+016 9.98562e+015 -1.28928e-005 7.61543 338.696
0.0014 1.0015e+016 9.95154e+015 -1.01726e-005 7.58884 208.445
0.0015 9.79353e+015 9.99143e+015 3.17059e-005 7.57374 330.045
0.0016 1.01065e+016 1.00295e+016 -1.23392e-005 7.52283 439.409
0.0017 1.02202e+016 1.00003e+016 -3.52371e-005 7.48586 170.744
0.0018 1.00482e+016 1.00922e+016 7.04182e-006 7.48868 11.5234
0.0019 1.00475e+016 9.93506e+015 -1.80089e-005 7.48355 -50.4084
0.002 9.87606e+015 1.00773e+016 3.22367e-005 7.49876 29.9363
0.0021 1.01938e+016 9.96278e+015 -3.70104e-005 7.47756 2.97913
0.0022 1.01831e+016 1.0004e+016 -2.86848e-005 7.49817 -368.005
0.0023 1.0164e+016 1.00994e+016 -1.03502e-005 7.55116 -588.437
0.0024 1.00126e+016 9.82107e+015 -3.06881e-005 7.61585 -820.182
0.0025 9.82503e+015 9.8558e+015 4.93131e-006 7.7152 -965.631
0.0026 9.8979e+015 1.00888e+016 3.05788e-005 7.80898 -765.104
0.0027 9.94139e+015 1.00281e+016 1.38882e-005 7.86822 -513.997
0.0028 1.00269e+016 9.99634e+015 -4.89441e-006 7.91178 -463.209
0.0029 9.88029e+015 1.01076e+016 3.64143e-005 7.96086 -285.215
0.003 9.74618e+015 9.99951e+015 4.05881e-005 7.96882 149.622
0.0031 1.00578e+016 9.86125e+015 -3.14956e-005 7.93094 200.967
0.0032 9.9778e+015 1.00227e+016 7.19764e-006 7.92863 63.7551
0.0033 9.95941e+015 1.00221e+016 1.00449e-005 7.91819 161.124
0.0034 9.8536e+015 1.00541e+016 3.21267e-005 7.8964 399.269
0.0035 9.98832e+015 1.00272e+016 6.22532e-006 7.83833 615.844
0.0036 9.99138e+015 1.00314e+016 6.40675e-006 7.77323 687.178
0.0037 1.00156e+016 9.9676e+015 -7.69337e-006 7.7009 679.913
0.0038 9.93495e+015 9.93876e+015 6.10369e-007 7.63725 639.915
0.0039 1.00388e+016 9.98001e+015 -9.41085e-006 7.57292 590.218
0.004 1.01507e+016 1.00618e+016 -1.42366e-005 7.51921 456.68
0.0041 1.00737e+016 9.99571e+015 -1.2499e-005 7.48158 305.703
0.0042 9.9311e+015 9.97504e+015 7.03991e-006 7.45807 274.875
0.0043 1.00909e+016 1.00951e+016 6.61408e-007 7.4266 318.364
0.0044 1.00098e+016 9.947e+015 -1.00666e-005 7.39439 265.253
0.0045 1.0173e+016 1.00664e+016 -1.70926e-005 7.37355 111.884
0.0046 1.00054e+016 9.8642e+015 -2.26258e-005 7.37202 -112.407
0.0047 9.93629e+015 9.91515e+015 -3.38614e-006 7.39604 -259.297
0.0048 1.00229e+016 1.00021e+016 -3.33913e-006 7.42388 -297.275
0.0049 9.89099e+015 1.00472e+016 2.50273e-005 7.45549 -174.801
0.005 1.01409e+016 1.01124e+016 -4.57733e-006 7.45884 -59.3188
0.0051 9.89287e+015 1.0063e+016 2.72591e-005 7.46735 68.7664
0.0052 9.88153e+015 9.8863e+015 7.65252e-007 7.44508 227.021
0.0053 1.0018e+016 9.99758e+015 -3.27833e-006 7.42195 212.83
0.0054 1.00168e+016 9.92641e+015 -1.44785e-005 7.40252 112.556
0.0055 9.99883e+015 9.99124e+015 -1.21668e-006 7.39944 23.925
0.0056 1.01126e+016 1.01139e+016 2.00834e-007 7.39773 18.1885
0.0057 1.00821e+016 1.00143e+016 -1.08598e-005 7.3958 -42.0034
0.0058 1.02633e+016 9.93374e+015 -5.28e-005 7.40613 -401.493
0.0059 1.00267e+016 9.9334e+015 -1.49559e-005 7.4761 -784.114
0.006 1.00171e+016 1.00917e+016 1.19543e-005 7.56296 -801.065
0.0061 9.93775e+015 9.92832e+015 -1.51007e-006 7.63631 -742.086
0.0062 1.00185e+016 1.01588e+016 2.24854e-005 7.71137 -623.637
0.0063 9.87881e+015 1.00169e+016 2.21259e-005 7.76104 -371.716
0.0064 1.0075e+016 9.90335e+015 -2.74993e-005 7.78572 -402.059
0.0065 1.00062e+016 9.95832e+015 -7.67017e-006 7.84145 -600.663
0.0066 9.84058e+015 9.94642e+015 1.69571e-005 7.90585 -548.219
0.0067 9.90823e+015 9.95181e+015 6.9815e-006 7.9511 -413.037
0.0068 9.99933e+015 1.01212e+016 1.95306e-005 7.98846 -263.322
0.0069 9.98768e+015 1.01328e+016 2.32533e-005 8.00376 -21.7193
0.007 9.77954e+015 9.96995e+015 3.05076e-005 7.9928 281.871
0.0071 9.84615e+015 9.84563e+015 -8.37694e-008 7.94739 453.676
0.0072 9.82296e+015 1.00846e+016 4.19113e-005 7.90207 689.878
0.0073 1.00539e+016 9.86043e+015 -3.09928e-005 7.80941 751.536
0.0074 1.00408e+016 1.00972e+016 9.04082e-006 7.75176 627.572
0.0075 1.00545e+016 9.88055e+015 -2.78662e-005 7.6839 521.265
0.0076 1.01353e+016 1.01486e+016 2.13058e-006 7.64751 375.935
0.0077 1.00892e+016 9.9928e+015 -1.54415e-005 7.60871 300.768
0.0078 1.01082e+016 1.00835e+016 -3.95259e-006 7.58735 191.249
0.0079 9.89819e+015 9.92304e+015 3.98084e-006 7.57046 191.408
0.008 1.00788e+016 1.00687e+016 -1.61676e-006 7.54907 204.758
0.0081 9.97284e+015 9.96762e+015 -8.35957e-007 7.52951 190.908
0.0082 9.97995e+015 9.97754e+015 -3.85184e-007 7.51089 184.012
0.0083 9.93467e+015 9.98168e+015 7.53233e-006 7.49271 224.372
0.0084 1.00719e+016 9.98844e+015 -1.33746e-005 7.46601 191.38
0.0085 1.00423e+016 1.00853e+016 6.88977e-006 7.45443 154.76
0.0086 1.00172e+016 9.9384e+015 -1.26229e-005 7.43506 122.385
0.0087 1.00668e+016 9.92426e+015 -2.28326e-005 7.42995 -77.8342
0.0088 1.00588e+016 9.96329e+015 -1.53056e-005 7.45063 -293.203
0.0089 9.98151e+015 9.98737e+015 9.39164e-007 7.48859 -374.331
0.009 9.78868e+015 1.00616e+016 4.37197e-005 7.5255 -122.141
0.0091 9.82813e+015 1.00419e+016 3.42491e-005 7.51302 318.153
0.0092 9.59427e+015 9.82956e+015 3.76982e-005 7.46187 724.442
0.0093 9.59231e+015 9.90171e+015 4.95713e-005 7.36813 1217.26
0.0094 9.35716e+015 9.84966e+015 7.89073e-005 7.21841 1942.78
0.0095 8.96017e+015 9.68682e+015 0.000116423 6.97958 3045.82
0.0096 7.60905e+015 9.1953e+015 0.000254146 6.60925 5138.44
0.0097 6.05917e+015 8.655e+015 0.000415898 5.95189 8922.21
0.0098 3.90567e+015 8.04888e+015 0.000663817 4.82481 15019.4
0.0099 1.80521e+015 7.72506e+015 0.000948465 2.94801 24124
0.01 4.30846e+014 7.59672e+015 0.0011481 0 29480.1
ZONE I=101 T=ZONE_004000
0 8.0493e+014 6.49914e+015 0.000912313 0 -26621.8
0.0001 1.7712e+015 6.75298e+015 0.000798169 2.66218 -22114.5
0.0002 3.90044e+015 7.22633e+015 0.000532866 4.4229 -14598.1
0.0003 5.59868e+015 7.95922e+015 0.0003782 5.5818 -9453.27
0.0004 7.15572e+015 8.67662e+015 0.000243676 6.31356 -5941.51
0.0005 8.30687e+015 9.25659e+015 0.000152161 6.7701 -3706.2
0.0006 8.99811e+015 9.6642e+015 0.00010672 7.0548 -2244.29
0.0007 9.23858e+015 9.72456e+015 7.78622e-005 7.21896 -1201.94
0.0008 9.61733e+015 9.81293e+015 3.13395e-005 7.29519 -585.278
0.0009 9.89914e+015 1.00307e+016 2.10853e-005 7.33602 -289.233
0.001 9.83919e+015 1.00705e+016 3.70619e-005 7.35303 39.1268
0.0011 1.00812e+016 9.87353e+015 -3.32718e-005 7.32819 60.5292
0.0012 1.00703e+016 1.00902e+016 3.19326e-006 7.34093 -109.326
0.0013 9.72308e+015 9.96986e+015 3.95372e-005 7.35006 131.975
0.0014 9.80012e+015 9.89636e+015 1.54182e-005 7.31453 442.31
0.0015 1.00449e+016 1.00376e+016 -1.1663e-006 7.26159 522.792
0.0016 1.00519e+016 1.00021e+016 -7.98135e-006 7.20997 471.135
0.0017 9.84947e+015 9.9922e+015 2.28687e-005 7.16737 555.204
0.0018 9.90969e+015 1.01477e+016 3.81371e-005 7.09893 899.706
0.0019 9.85819e+015 9.92894e+015 1.13368e-005 6.98743 1179.09
0.002 1.0126e+016 1.00673e+016 -9.41752e-006 6.86312 1189.93
0.0021 1.02108e+016 9.94709e+015 -4.22462e-005 6.74944 898.179
0.0022 1.00466e+016 1.00236e+016 -3.68102e-006 6.68348 638.826
0.0023 1.00041e+016 1.01341e+016 2.08217e-005 6.62168 735.621
0.0024 1.00973e+016 9.73328e+015 -5.83175e-005 6.53636 523.881
0.0025 9.92244e+015 9.90543e+015 -2.72557e-006 6.5169 179.168
0.0026 1.00562e+016 1.00234e+016 -5.26464e-006 6.50052 134.047
0.0027 1.01651e+016 1.0059e+016 -1.70053e-005 6.49009 8.28743
0.0028 1.01791e+016 1.00098e+016 -2.71139e-005 6.49886 -240.856
0.0029 1.01431e+016 1.0103e+016 -6.4225e-006 6.53826 -430.237
0.003 9.74844e+015 9.98972e+015 3.86575e-005 6.58491 -248.204
0.0031 1.00271e+016 9.94126e+015 -1.37457e-005 6.5879 -107.526
0.0032 1.00281e+016 9.9229e+015 -1.68608e-005 6.60642 -280.363
0.0033 9.9926e+015 1.00503e+016 9.24437e-006 6.64397 -323.373
0.0034 9.96507e+015 1.00945e+016 2.07409e-005 6.67109 -154.045
0.0035 1.00522e+016 9.99298e+015 -9.48094e-006 6.67478 -90.4595
0.0036 1.00803e+016 1.00398e+016 -6.48462e-006 6.68918 -180.618
0.0037 9.94896e+015 9.95176e+015 4.48209e-007 6.71091 -214.706
0.0038 9.97438e+015 9.97686e+015 3.97549e-007 6.73212 -209.929
0.0039 9.76671e+015 9.9467e+015 2.88372e-005 6.75289 -44.8396
0.004 9.86997e+015 1.01037e+016 3.74472e-005 6.74109 329.471
0.0041 9.94855e+015 9.95831e+015 1.5645e-006 6.687 549.772
0.0042 9.90268e+015 1.00232e+016 1.93166e-005 6.63114 667.688
0.0043 1.01498e+016 1.00408e+016 -1.74703e-005 6.55346 678.115
0.0044 1.00779e+016 9.96889e+015 -1.74638e-005 6.49552 480.84
0.0045 1.01808e+016 1.00072e+016 -2.78084e-005 6.45729 225.186
0.0046 9.8631e+015 9.90699e+015 7.0324e-006 6.45048 107.863
0.0047 1.00853e+016 9.92556e+015 -2.55983e-005 6.43572 3.02082
0.0048 1.00103e+016 9.9643e+015 -7.36452e-006 6.44987 -183.121
0.0049 9.99193e+015 1.00731e+016 1.30034e-005 6.47235 -151.278
0.005 1.00194e+016 1.00971e+016 1.24605e-005 6.48013 -7.48218
0.0051 9.99449e+015 1.01067e+016 1.79726e-005 6.47384 164.375
0.0052 1.01186e+016 9.85769e+015 -4.18069e-005 6.44725 29.7814
0.0053 1.0027e+016 1.00121e+016 -2.39226e-006 6.46789 -219.813
0.0054 1.00551e+016 9.91151e+015 -2.30034e-005 6.49122 -363.224
0.0055 9.89628e+015 9.9871e+015 1.45506e-005 6.54053 -410.957
0.0056 1.0144e+016 1.01115e+016 -5.21025e-006 6.57341 -358.212
0.0057 9.98966e+015 9.9951e+015 8.70976e-007 6.61217 -382.716
0.0058 9.94976e+015 9.97217e+015 3.59037e-006 6.64995 -357.523
0.0059 9.98954e+015 9.90842e+015 -1.29972e-005 6.68368 -410.644
0.006 9.95324e+015 1.011e+016 2.51117e-005 6.73208 -342.233
0.0061 9.88114e+015 9.95309e+015 1.15268e-005 6.75212 -135.333
0.0062 1.00118e+016 1.01312e+016 1.91394e-005 6.75915 37.84
0.0063 9.89565e+015 1.00296e+016 2.14594e-005 6.74456 267.103
0.0064 9.93119e+015 9.87221e+015 -9.45007e-006 6.70573 334.921
0.0065 1.02183e+016 1.00064e+016 -3.39421e-005 6.67757 89.8834
0.0066 9.90373e+015 9.88036e+015 -3.74437e-006 6.68775 -122.934
0.0067 9.85555e+015 9.9868e+015 2.10278e-005 6.70216 -25.3335
0.0068 9.92658e+015 1.01243e+016 3.16789e-005 6.69282 272.304
0.0069 9.97357e+015 1.01139e+016 2.24811e-005 6.6477 578.148
0.007 1.00409e+016 1.00022e+016 -6.20257e-006 6.57719 670.074
0.0071 1.01636e+016 9.86989e+015 -4.70493e-005 6.51368 369.358
0.0072 1.01482e+016 9.98689e+015 -2.58401e-005 6.50332 -42.2516
0.0073 1.00304e+016 9.90474e+015 -2.01409e-005 6.52213 -301.908
0.0074 9.89751e+015 1.01181e+016 3.53366e-005 6.5637 -216.097
0.0075 1.02635e+016 9.85572e+015 -6.53382e-005 6.56535 -385.518
0.0076 9.94142e+015 1.01781e+016 3.79227e-005 6.6408 -540.334
0.0077 1.00221e+016 9.95104e+015 -1.13927e-005 6.67342 -390.518
0.0078 1.02347e+016 1.01291e+016 -1.69204e-005 6.7189 -550.403
0.0079 1.01776e+016 9.92411e+015 -4.06135e-005 6.7835 -875.3
0.008 1.00354e+016 1.00739e+016 6.15763e-006 6.89396 -1069.87
0.0081 9.93759e+015 9.94149e+015 6.26199e-007 6.99747 -1031.57
0.0082 9.96067e+015 9.97167e+015 1.76288e-006 7.10028 -1018.07
0.0083 9.86857e+015 1.00043e+016 2.17542e-005 7.20109 -885.272
0.0084 9.98365e+015 1.00114e+016 4.44901e-006 7.27733 -737.302
0.0085 9.78093e+015 1.00586e+016 4.44958e-005 7.34855 -460.908
0.0086 9.86212e+015 9.94794e+015 1.37508e-005 7.36951 -131.987
0.0087 9.979e+015 9.85922e+015 -1.91919e-005 7.37495 -162.713
0.0088 9.97721e+015 9.96424e+015 -2.07779e-006 7.40206 -282.824
0.0089 9.80879e+015 9.99338e+015 2.95742e-005 7.43151 -127.55
0.009 9.89206e+015 1.00825e+016 3.05122e-005 7.42757 211.761
0.0091 9.77945e+015 1.00256e+016 3.94389e-005 7.38916 606.778
0.0092 9.75064e+015 9.76443e+015 2.20879e-006 7.30621 841.964
0.0093 9.40865e+015 9.7586e+015 5.60681e-005 7.22077 1171.06
0.0094 8.98371e+015 9.71844e+015 0.000117717 7.072 2152.43
0.0095 8.31505e+015 9.33402e+015 0.000163258 6.79028 3739.11
0.0096 7.24739e+015 8.67689e+015 0.000229032 6.32418 5954.39
0.0097 5.55477e+015 7.9989e+015 0.000391593 5.5994 9459.09
0.0098 3.80193e+015 7.19125e+015 0.000543029 4.43236 14736.9
0.0099 1.87563e+015 6.69278e+015 0.000771793 2.65201 22161.8
0.01 8.69553e+014 6.55114e+015 0.00091029 0 26520.1
ZONE I=101 T=ZONE_005000
0 8.40551e+014 5.62758e+015 0.000766966 0 -23212.7
0.0001 1.80334e+015 5.91406e+015 0.00065861 2.32127 -19493.5
0.0002 3.42423e+015 6.4484e+015 0.000484526 3.8987 -13038.1
0.0003 5.27069e+015 7.39118e+015 0.00033974 4.9289 -8383.48
0.0004 6.96293e+015 8.20179e+015 0.000198487 5.57539 -5344.08
0.0005 7.982e+015 8.8761e+015 0.00014325 5.99771 -3414.28
0.0006 8.74517e+015 9.38213e+015 0.000102053 6.25825 -2029.04
0.0007 9.1717e+015 9.56687e+015 6.33134e-005 6.40352 -1095.21
0.0008 9.67438e+015 9.68868e+015 2.29081e-006 6.47729 -724.738
0.0009 9.78516e+015 1.00612e+016 4.42256e-005 6.54847 -462.058
0.001 9.847e+015 1.00068e+016 2.56019e-005 6.5697 -67.7384
0.0011 9.94124e+015 9.89095e+015 -8.05859e-006 6.56202 31.3296
0.0012 1.00618e+016 1.00952e+016 5.35179e-006 6.56343 16.0442
0.0013 1.01606e+016 9.96298e+015 -3.16606e-005 6.55881 -132.523
0.0014 9.99705e+015 9.86308e+015 -2.14647e-005 6.58994 -432.524
0.0015 9.93216e+015 1.00541e+016 1.95386e-005 6.64531 -443.401
0.0016 9.85148e+015 9.99746e+015 2.33879e-005 6.67862 -200.993
0.0017 1.01312e+016 9.98361e+015 -2.36417e-005 6.68551 -202.426
0.0018 1.00121e+016 1.01628e+016 2.41403e-005 6.7191 -199.61
0.0019 9.91942e+015 9.95664e+015 5.96255e-006 6.72543 -29.6176
0.002 9.92918e+015 1.00671e+016 2.20982e-005 6.72503 128.842
0.0021 1.01025e+016 9.91957e+015 -2.9312e-005 6.69966 88.1055
0.0022 9.90008e+015 1.00402e+016 2.24567e-005 6.70741 49.3933
0.0023 9.96598e+015 1.01305e+016 2.63643e-005 6.68979 325.088
0.0024 9.92944e+015 9.69074e+015 -3.8245e-005 6.64239 257.997
0.0025 1.0004e+016 9.96874e+015 -5.64097e-006 6.63819 10.1712
0.0026 1.00093e+016 9.95574e+015 -8.57528e-006 6.64035 -70.1086
0.0027 9.7948e+015 1.0073e+016 4.4568e-005 6.65221 133.144
0.0028 9.74364e+015 1.00306e+016 4.59807e-005 6.61373 644.477
0.0029 1.00483e+016 1.0056e+016 1.23817e-006 6.52331 911.124
0.003 1.00307e+016 1.00315e+016 1.27712e-007 6.4315 918.837
0.0031 1.00122e+016 9.98842e+015 -3.80551e-006 6.33955 898.068