<VTKFile byte_order="LittleEndian" type="PolyData" version="0.1">
<PolyData>
<Piece NumberOfPoints="887" NumberOfPolys="1582">
<Points>
<DataArray Name="points" NumberOfComponents="3" format="ascii" type="Float32">
-0.985 1.06 0.764 -0.981 0.97 0.801 -0.981 0.975 0.714 -0.985 1.06 0.864 -0.981 0.975 0.914 -0.982 1.14 0.817 -0.981 1.15 0.914 -0.981 1.15 0.714 -0.721 0.387 0.913 -0.713 0.379 0.67 -0.842 0.547 0.801 -0.564 0.249 0.778 -0.564 0.249 1.03 -0.564 0.249 0.531 -0.966 0.866 0.284 -0.949 0.798 0.515 -0.886 0.628 0.284 -0.982 0.99 0.457 -0.981 0.975 0.614 -0.985 1.06 0.564 -0.969 0.883 0.706 -0.838 0.541 0.534 -0.925 0.723 0.722 -0.749 0.418 0.284 -0.693 0.358 0.462 -0.564 0.249 0.284 -0.976 1.2 0.554 -0.983 1.13 0.466 -0.963 1.27 0.441 -0.981 1.15 0.614 -0.984 1.12 0.284 -0.938 1.36 0.284 0.912 1.48 2.46 0.862 1.58 2.53 0.862 1.58 2.39 0.898 1.51 2.66 0.964 1.35 2.54 0.82 1.64 2.65 0.823 1.64 2.79 0.962 1.35 2.77 1 1.16 2.64 0.999 1.17 2.89 0.999 0.955 2.77 1 0.965 3.03 0.955 0.75 2.9 0.956 0.754 3.16 0.867 0.557 3.02 0.744 0.39 3.4 0.584 0.249 3.25 0.584 0.249 3.5 0.866 0.555 3.29 0.742 0.388 3.14 0.894 1.52 2.87 0.821 1.64 2.95 0.863 1.57 3.07 0.953 1.38 2.99 0.895 1.52 3.36 0.966 1.34 3.36 0.925 1.45 3.54 0.995 1.21 3.16 0.863 1.57 3.21 0.931 1.44 3.19 0.988 1.24 3.55 0.958 1.36 3.74 1 1.12 3.74 1 1.02 3.53 0.986 0.866 3.74 1 1.16 3.38 0.957 0.758 3.47 1 0.976 3.29 0.906 0.628 3.74 0.769 0.418 3.74 0.584 0.249 3.74 0.859 0.543 3.53 0.584 0.249 3 0.742 0.388 2.89 0.584 0.249 2.76 0.742 0.388 2.64 0.584 0.249 2.51 0.867 0.557 2.76 0.741 0.387 2.39 0.584 0.249 2.26 0.954 0.748 2.64 0.867 0.556 2.51 0.741 0.387 2.14 0.584 0.249 2.01 0.866 0.554 2.26 0.999 0.953 2.51 0.953 0.745 2.38 0.977 1.3 1.98 0.93 1.44 1.84 0.982 1.27 1.79 0.956 1.37 2.37 0.918 1.47 2.05 0.968 1.33 2.19 0.846 1.6 1.92 0.835 1.62 2.12 0.64 1.83 2.08 0.636 1.84 2.23 0.526 1.91 2.16 0.748 1.73 2.01 0.738 1.74 2.21 0.903 1.5 2.26 0.82 1.64 2.27 0.742 0.389 1.4 0.584 0.249 1.27 0.584 0.249 1.52 0.744 0.391 1.15 0.584 0.249 1.03 0.741 0.387 1.89 0.741 0.387 1.64 0.584 0.249 1.77 1 1.12 1.89 1 1.13 1.66 0.997 0.935 1.77 0.998 0.945 1.53 0.952 0.742 1.65 0.954 0.748 1.4 0.867 0.556 1.52 0.869 0.56 1.27 0.865 0.554 1.77 0.865 0.553 2.01 1 1.14 2.11 0.998 1.18 2.37 0.951 0.739 1.89 0.997 0.935 2.01 0.952 0.741 2.13 0.998 0.946 2.25 0.747 0.394 0.899 0.584 0.249 0.778 0.521 1.92 1.99 0.383 1.98 2.07 0.872 0.565 1.03 0.957 0.756 1.15 1 0.959 1.28 0.642 1.83 1.9 1 1.16 1.42 0.955 1.37 1.59 0.749 1.73 1.82 0.846 1.6 1.68 -0.981 1.15 1.01 -0.97 1.23 0.953 -0.969 1.24 1.05 -0.95 1.32 0.998 -0.949 1.33 1.1 -0.871 1.52 1.12 -0.92 1.42 1.17 -0.92 1.42 1.05 -0.874 1.52 1.27 0.386 1.98 1.89 0.0901 2.05 1.91 0.232 2.03 1.8 0.258 2.03 1.96 0.05 2.06 1.71 -0.793 1.65 1.2 -0.796 1.65 1.39 -0.114 2.05 1.82 -0.148 2.04 1.62 -0.678 1.78 1.3 -0.669 1.79 1.51 -0.317 2 1.72 -0.345 1.99 1.51 -0.525 1.9 1.41 -0.506 1.91 1.62 0.521 1.92 1.8 -0.973 1.21 0.867 -0.97 1.23 0.777 -0.953 1.31 0.875 -0.925 1.4 0.95 -0.882 1.5 0.975 0.379 1.99 1.7 0.211 2.04 1.61 -0.367 1.98 1.3 -0.174 2.04 1.41 0.0228 2.06 1.51 -0.543 1.89 1.2 -0.804 1.63 1.03 -0.691 1.77 1.11 0.524 1.91 1.62 0.643 1.83 1.73 0.753 0.4 0.636 0.584 0.249 0.531 0.876 0.572 0.775 0.659 1.82 1.55 0.959 0.762 0.907 0.736 1.74 1.66 1 0.967 1.03 0.998 1.18 1.16 0.768 1.71 1.54 0.95 1.39 1.3 0.86 1.58 1.44 0.373 1.99 1.51 -0.97 1.23 0.663 0.195 2.04 1.4 -0.565 1.87 0.984 -0.388 1.97 1.08 0.00331 2.06 1.29 -0.194 2.04 1.19 -0.944 1.34 0.736 -0.908 1.45 0.845 -0.715 1.74 0.907 -0.831 1.59 0.856 0.183 2.04 1.18 -0.00796 2.06 1.07 0.173 2.04 0.965 -0.00653 2.06 0.835 0.172 2.04 0.77 -0.208 2.03 0.952 -0.41 1.96 0.842 -0.214 2.03 0.671 0.0525 2.06 0.562 -0.947 1.33 0.586 -0.595 1.85 0.759 -0.751 1.7 0.701 -0.879 1.51 0.668 -0.791 1.65 0.487 -0.903 1.46 0.458 -0.833 1.59 0.284 -0.632 1.82 0.52 -0.445 1.95 0.593 -0.674 1.78 0.284 -0.472 1.93 0.284 -0.303 2.01 0.456 -0.239 2.03 0.284 -0.142 2.05 0.449 0.01 2.06 0.284 0.368 1.99 1.29 0.358 1.99 1.07 0.338 2 0.845 0.54 1.9 1.19 0.523 1.91 0.944 0.7 1.78 1.06 0.535 1.91 1.42 0.848 1.6 1.18 0.712 1.77 1.34 0.836 1.62 0.911 0.678 1.8 0.798 0.946 1.4 1.04 0.491 1.93 0.701 0.297 2.01 0.615 0.985 1.26 0.499 0.958 1.36 0.284 1 1.12 0.284 0.904 1.5 0.482 0.853 1.59 0.284 0.945 1.4 0.74 0.813 1.65 0.65 0.792 1.68 0.443 0.694 1.78 0.284 0.64 1.83 0.521 0.443 1.96 0.484 0.259 2.03 0.284 0.492 1.93 0.284 0.998 1.18 0.911 1 1.16 0.693 1 0.969 0.789 1 0.984 0.524 0.96 0.768 0.662 0.986 0.866 0.284 0.958 0.761 0.454 0.884 0.586 0.517 0.769 0.418 0.284 0.584 0.249 0.284 0.906 0.628 0.284 0.568 1.89 3.55 0.694 1.78 3.74 0.492 1.93 3.74 0.853 1.59 3.74 0.821 1.64 3.33 0.814 1.65 3.51 0.695 1.78 3.5 0.637 1.83 3.37 0.739 1.74 3.39 0.161 2.05 3.54 0.259 2.03 3.74 0.01 2.06 3.74 0.55 1.9 3.27 0.422 1.97 3.24 0.516 1.92 3.14 0.383 1.98 3.56 0.305 2.01 3.37 0.482 1.94 3.39 0.739 1.74 2.89 0.738 1.74 2.71 0.637 1.83 2.91 0.549 1.9 2.8 0.663 1.81 2.8 0.55 1.9 3 0.636 1.84 2.69 0.549 1.9 2.59 -0.564 0.249 2.76 -0.726 0.393 2.88 -0.564 0.249 3 -0.725 0.392 2.63 -0.564 0.249 2.51 -0.853 0.566 2.75 -0.725 0.391 2.38 -0.564 0.249 2.26 -0.852 0.565 2.5 -0.939 0.763 2.62 -0.724 0.391 2.13 -0.564 0.249 2.01 -0.852 0.564 2.25 -0.939 0.764 2.37 -0.981 0.977 2.49 -0.724 0.39 1.88 -0.564 0.249 1.77 -0.851 0.563 2 -0.939 0.763 2.12 -0.982 0.983 2.24 -0.975 1.21 2.37 -0.487 1.92 1.83 -0.661 1.8 1.72 -0.647 1.81 1.95 -0.798 1.64 1.84 -0.787 1.66 2.08 -0.908 1.45 1.97 -0.973 1.22 2.11 -0.9 1.46 2.26 -0.928 1.39 1.28 -0.905 1.45 1.45 -0.802 1.64 1.6 -0.91 1.44 1.71 -0.98 1.16 1.11 -0.564 0.249 1.52 -0.722 0.388 1.64 -0.722 0.388 1.4 -0.985 1.06 1.06 -0.846 0.555 1.52 -0.846 0.554 1.29 -0.929 0.733 1.39 -0.925 0.723 1.2 -0.985 1.06 1.18 -0.979 0.952 1.11 -0.973 0.905 1.26 -0.959 0.837 1.12 -0.934 0.748 1.62 -0.849 0.559 1.76 -0.938 0.759 1.87 -0.982 0.982 1.99 -0.968 1.25 1.14 -0.976 1.19 1.22 -0.953 1.31 1.21 -0.962 1.28 1.34 -0.984 1.1 1.34 -0.977 0.939 1.48 -0.981 0.971 1.73 -0.974 1.21 1.85 -0.975 1.2 1.56 -0.728 0.395 3.13 -0.564 0.249 3.25 -0.289 2.01 1.94 -0.854 0.569 3 -0.939 0.764 2.87 -0.464 1.94 2.05 -0.981 0.975 2.74 -0.625 1.83 2.18 -0.976 1.19 2.62 -0.923 1.41 2.52 -0.758 1.69 2.32 -0.84 1.58 2.45 0.186 2.04 2.38 0.197 2.04 2.59 -0.0111 2.06 2.48 0.375 1.99 2.5 0.392 1.98 2.29 0.385 1.98 2.7 0.549 1.9 2.32 0.514 1.92 2.46 -0.438 1.95 2.28 -0.259 2.02 2.16 -0.0742 2.05 2.03 0.173 2.04 2.13 -0.229 2.03 2.38 -0.0374 2.06 2.26 -0.733 0.401 3.39 -0.564 0.249 3.5 -0.857 0.574 3.25 -0.94 0.766 3.12 -0.981 0.974 2.99 -0.731 1.73 2.53 -0.599 1.85 2.4 -0.977 1.19 2.87 -0.839 1.58 2.64 -0.926 1.4 2.75 -0.412 1.96 2.5 -0.205 2.03 2.6 0.392 1.98 2.9 0.00785 2.06 2.7 0.21 2.04 2.8 0.0547 2.06 3.12 0.226 2.03 3 0.255 2.03 3.19 0.0276 2.06 2.91 0.397 1.98 3.08 -0.183 2.04 2.81 -0.159 2.04 3.03 -0.388 1.97 2.72 -0.366 1.98 2.93 -0.716 1.74 2.74 -0.575 1.87 2.62 -0.555 1.88 2.84 0.0902 2.05 3.33 -0.139 2.05 3.25 -0.351 1.99 3.16 -0.539 1.89 3.06 -0.702 1.76 2.96 -0.834 1.59 2.86 -0.825 1.6 3.1 -0.686 1.77 3.18 -0.926 1.4 2.99 -0.53 1.9 3.28 -0.346 1.99 3.38 -0.118 2.05 3.51 -0.938 1.36 3.74 -0.883 1.5 3.53 -0.833 1.59 3.74 -0.965 1.26 3.52 -0.984 1.12 3.74 -0.926 1.4 3.27 -0.8 1.64 3.33 -0.747 1.71 3.54 -0.674 1.78 3.74 -0.671 1.79 3.37 -0.551 1.88 3.52 -0.472 1.93 3.74 -0.352 1.99 3.58 -0.239 2.03 3.74 -0.978 1.18 3.11 -0.98 1.16 3.33 -0.981 0.972 3.23 -0.939 0.762 3.57 -0.966 0.866 3.74 -0.886 0.628 3.74 -0.982 0.985 3.5 -0.941 0.77 3.36 -0.864 0.587 3.51 -0.749 0.418 3.74 -0.564 0.249 3.74 -0.981 0.975 1.01 -0.924 0.718 0.91 -0.963 0.856 0.842 -0.965 0.865 0.995 -0.724 0.39 1.16 -0.564 0.249 1.27 -0.857 0.574 1.05 -0.933 0.746 1.05 -0.731 0.383 1.13 -0.581 0.249 1.03 -0.581 0.249 1.27 -0.734 0.387 0.921 -0.838 0.523 1.02 -0.964 0.814 0.718 -0.991 0.975 0.714 -0.991 0.975 0.614 -0.98 0.891 0.816 -0.851 0.544 0.85 -0.911 0.66 0.946 -0.92 0.682 0.816 -0.957 0.788 0.877 -0.76 0.416 0.712 -0.581 0.249 0.778 -0.581 0.249 0.531 -0.952 0.771 0.505 -0.978 0.88 0.284 -0.901 0.638 0.284 -0.993 0.993 0.454 -0.995 1.06 0.564 -0.891 0.617 0.684 -0.83 0.511 0.499 -0.766 0.423 0.284 -0.581 0.249 0.284 -0.99 1.16 0.816 -0.995 1.06 0.864 -0.991 1.15 0.914 -0.995 1.06 0.764 -0.991 1.15 0.714 -0.992 0.978 0.834 -0.991 0.975 0.914 -0.956 0.786 1.04 -0.982 0.9 0.934 -0.984 0.911 1.05 -0.991 0.975 1.01 -0.992 0.98 1.09 -0.741 0.394 1.37 -0.581 0.249 1.52 -0.849 0.54 1.21 -0.982 0.9 1.17 -0.904 0.643 1.08 -0.935 0.719 1.22 -0.995 1.06 1.06 0.698 1.79 3.74 0.571 1.9 3.54 0.494 1.94 3.74 0.931 1.46 3.54 0.859 1.6 3.74 0.966 1.37 3.74 0.828 1.65 3.33 0.901 1.53 3.34 0.87 1.58 3.21 0.82 1.66 3.51 0.7 1.79 3.5 0.644 1.84 3.37 0.746 1.75 3.39 0.973 1.35 2.17 0.909 1.51 2.07 0.908 1.51 2.23 0.973 1.35 1.97 0.898 1.53 1.89 0.968 1.36 1.77 0.827 1.65 2.27 0.828 1.65 2.15 0.746 1.75 2.21 0.643 1.84 2.23 0.713 1.78 2.09 0.563 1.9 2.18 0.83 1.64 2.01 1.01 1.16 1.86 1.01 1.17 1.64 1.01 1.16 2.08 1.01 0.959 1.75 1.01 0.964 1.52 1.01 0.955 1.98 0.758 0.391 1.4 0.883 0.564 1.28 0.882 0.563 1.52 0.759 0.392 1.15 0.601 0.249 1.27 0.601 0.249 1.03 0.967 0.755 1.64 0.968 0.758 1.4 0.966 0.753 1.87 0.882 0.562 1.76 0.758 0.391 1.64 0.601 0.249 1.52 0.758 0.39 0.909 0.601 0.249 0.778 0.883 0.564 1.04 0.968 0.758 1.16 1.01 0.968 1.28 1.01 1.18 1.41 0.962 1.38 1.54 0.879 1.57 1.68 0.574 1.89 1.99 0.431 1.97 2.12 0.756 1.74 1.86 -0.878 1.53 1.25 -0.785 1.68 1.21 -0.888 1.51 1.09 -0.645 1.82 1.3 -0.751 1.72 1.38 -0.659 1.81 1.49 -0.835 1.61 1.35 -0.974 1.27 0.88 -0.977 1.25 0.997 -0.991 1.15 1.01 -0.983 1.22 1.11 -0.928 1.42 1.21 -0.954 1.35 1.1 -0.942 1.38 0.966 0.368 2 1.91 0.143 2.06 2.01 0.154 2.06 1.78 -0.0527 2.07 1.9 0.288 2.03 2.11 -0.0649 2.06 1.67 -0.495 1.93 1.42 -0.528 1.91 1.62 -0.252 2.03 1.8 -0.31 2.01 1.57 -0.417 1.97 1.75 1.01 0.963 1.04 1.01 1.19 1.16 0.967 0.756 0.925 0.883 0.563 0.793 0.752 0.385 0.665 0.601 0.249 0.531 0.955 1.4 1.3 0.864 1.59 1.45 0.57 1.9 1.75 0.737 1.76 1.6 -0.0821 2.06 1.43 -0.301 2.02 1.32 0.145 2.06 1.54 0.365 2 1.65 -0.974
[...]
<CellData Normals="normals" Scalars="layers">
<DataArray Name="normals" NumberOfComponents="3" format="ascii" type="Float32">
0.999 0.0452 -0.00283
0.999 0.0448 0.00222
0.999 0.0463 2.14e-006
0.999 -0.0426 -0.00168
0.999 -0.0426 0.0016
0.999 -0.0416 8.13e-006
0.798 0.603 0.0052
0.659 0.752 -0
0.655 0.756 0
0.657 0.754 -0.00515
0.947 0.319 0.0275
0.986 0.163 -0.0209
0.999 0.0414 -0.00367
0.986 0.161 0.0285
0.985 0.172 0.00899
0.795 0.607 -0.00275
0.902 0.432 0.00263
0.966 0.259 -0.0173
0.916 0.4 0.0396
0.838 0.546 0.0302
0.918 0.396 -0.037
0.779 0.627 -0.0307
0.788 0.616 0.0147
0.648 0.762 -0.0129
0.674 0.737 0.039
0.644 0.765 0
0.991 -0.132 0.0256
1 0.00195 0.0228
0.997 -0.065 0.0373
0.997 -0.0695 -0.0245
0.996 0.0718 0.0457
0.983 -0.18 0.048
1 0.00365 -0.0037
0.991 -0.136 0.00446
-0.883 -0.469 1.42e-006
-0.932 -0.361 -0.013
-0.856 -0.517 0.00283
-0.881 -0.473 0.00673
-0.855 -0.518 -0.0236
-0.929 -0.37 0.00229
-0.98 -0.198 0.00419
-0.981 -0.194 -0.00254
-1 0.00207 -0.00462
-0.978 0.209 -0.00423
-1 -0.00299 0.00413
-0.979 0.206 0.00174
-0.911 0.412 -0.00172
-0.661 0.751 0
-0.911 0.411 -0.00067
-0.803 0.596 0.000647
-0.66 0.751 -0.00118
-0.803 0.596 0.00116
-0.854 -0.52 -0.00177
-0.927 -0.374 -0.00431
-0.856 -0.517 0.00349
-0.911 -0.411 -0.0272
-0.849 -0.528 0.0152
-0.978 -0.21 -0.0137
-0.924 -0.383 0.0114
-0.929 -0.369 0.0233
-0.975 -0.221 0.0126
-1 -0.0153 -0.0145
-0.893 -0.449 0.0186
-0.894 -0.447 -2.21e-006
-0.903 -0.428 0.0258
-0.928 -0.371 -0.0274
-0.965 -0.259 -0.0283
-0.963 -0.267 0.0385
-0.956 -0.291 -0.0327
-0.983 -0.18 -0.0408
-0.957 -0.289 0.0302
-0.997 0.0718 -0.0348
-0.997 -0.0737 0.0302
-0.982 -0.189 -0.0155
-0.997 -0.0673 -0.0375
-0.982 -0.186 0.0243
-0.912 0.411 -0.0015
-1 -0.0162 0.0229
-0.979 0.202 -0.00451
-1 -0.0262 0.00481
-0.983 0.18 -0.0213
-0.98 0.199 0.00152
-1 -0.0116 0.014
-0.947 0.319 -0.0284
-0.985 0.168 0.0347
-0.665 0.747 -0.0133
-0.675 0.738 0
-0.802 0.597 0.00926
-0.837 0.545 -0.0349
-0.801 0.598 0.00604
-0.906 0.423 0.0284
-0.91 0.415 -0.00687
-0.66 0.752 0
-0.66 0.752 0
-0.803 0.596 -9.87e-005
-0.66 0.752 9.88e-005
-0.66 0.752 0
-0.66 0.752 -2.98e-005
-0.911 0.413 -9.16e-005
-0.803 0.596 3.01e-005
-0.803 0.596 9.18e-005
-0.659 0.752 0
-0.977 0.212 0.00078
-0.91 0.414 0.000439
-0.911 0.413 -0.000782
-0.659 0.752 -0.000237
-0.803 0.596 -0.000438
-0.803 0.597 0.000237
-0.659 0.752 0
-0.659 0.752 -0.000289
-0.802 0.597 -0.000784
-0.802 0.598 0.000288
-1 0.00525 0.000625
-0.909 0.416 0.000783
-0.91 0.415 -0.00127
-0.977 0.213 -0.000643
-0.977 0.214 0.00128
-0.954 -0.3 0.0102
-0.933 -0.36 -0.01
-0.944 -0.329 0.0125
-0.884 -0.468 0.0117
-0.948 -0.319 -0.0115
-0.876 -0.483 -0.0077
-0.576 -0.817 0.00228
-0.791 -0.612 0.00724
-0.785 -0.62 -0.00499
-0.683 -0.731 -0.00224
-0.687 -0.726 0.00474
-0.931 -0.364 0.0196
-0.872 -0.49 0.0124
-0.936 -0.351 -0.0135
-0.778 -0.628 0.0126
-0.928 -0.372 0.00736
-0.882 -0.472 -0.00524
-0.859 -0.512 -0.012
-0.858 -0.514 0.0271
-0.66 0.751 0
-0.661 0.75 0
-0.661 0.751 0.00127
-0.659 0.752 -6.8e-005
-0.66 0.752 0.000806
-0.659 0.752 0
-0.659 0.752 0
-0.659 0.752 0.0003
-0.999 0.031 0.00651
-0.99 -0.142 -0.0109
-0.99 -0.139 -0.00498
-0.975 0.223 0.00447
-1 0.0253 -0.00427
-0.976 0.219 -0.00283
-0.91 0.416 0.00287
-0.911 0.413 -0.00202
-0.805 0.593 -0.00126
-0.804 0.595 0.00204
-0.802 0.597 0.00125
-0.803 0.596 -0.000803
-0.802 0.598 -0.000617
-0.801 0.598 -0.000298
-0.801 0.598 6.74e-005
-0.801 0.598 0.000168
-0.986 -0.167 -0.0138
-0.989 -0.151 0.00596
-0.981 -0.195 -0.00623
-0.977 -0.215 0.0133
-0.984 -0.177 0.0136
-0.976 -0.216 -0.0192
-0.908 0.418 -0.00123
-0.908 0.419 0.00134
-1 0.0309 -0.00673
-0.999 0.0352 -7.7e-005
-0.974 0.227 -0.0013
-0.974 0.227 8.41e-005
-0.909 0.418 -0.00196
-0.907 0.42 -0.000165
-0.908 0.419 0.00061
-0.908 0.42 -0.000819
-1 0.00899 -0.0171
-1 0.025 0.00444
-0.974 0.227 0.000796
-0.975 0.224 -0.00467
-0.976 0.22 0.00196
-0.976 0.217 -0.00316
-1 0.000791 0.00755
-1 -0.0017 0.00345
-0.663 0.749 0
-0.662 0.75 0.00183
-0.447 -0.895 -0.0026
-0.808 0.59 -0.00181
-0.806 0.592 0.00259
-0.913 0.407 -0.00257
-0.912 0.41 0.00347
-0.576 -0.817 0.00234
-0.978 0.209 -0.00347
-0.977 0.214 0.00569
-0.576 -0.818 0.00131
-1 0.00444 -0.00579
-1 0.0134 0.0124
-0.69 -0.724 -0.00131
-0.98 -0.199 -0.0138
-0.982 -0.182 0.0432
-0.793 -0.609 -0.000826
-0.691 -0.723 0.000759
-0.897 -0.442 0.0294
-0.956 -0.294 -0.0162
-0.794 -0.608 0.000113
-0.886 -0.464 -0.000128
0.991 -0.132 -0.004
0.992 -0.129 -5.93e-006
0.975 -0.222 -0.00183
0.976 -0.218 0.00406
0.911 -0.411 7.63e-005
0.912 -0.41 0.00275
0.95 -0.311 0.00204
0.95 -0.312 -6.02e-005
-0.446 -0.895 -0.00121
-0.162 -0.987 -0.0128
-0.14 -0.99 0.0164
-0.314 -0.95 0.00105
-0.308 -0.951 0.0125
0.851 -0.525 0.00166
0.85 -0.527 -0.00363
0.0524 -0.999 0.0151
0.03 -0.999 -0.0185
0.752 -0.659 -0.00534
0.753 -0.658 -0.00194
0.253 -0.967 0.0131
0.236 -0.972 -0.016
0.608 -0.794 -0.0103
0.615 -0.788 0.00541
0.432 -0.902 -0.0135
0.445 -0.896 0.0101
-0.576 -0.817 0.000311
0.992 -0.125 -0.00794
0.993 -0.119 0.00133
0.992 -0.128 -0.00162
0.992 -0.124 0.00836
0.979 -0.202 -0.00903
0.977 -0.215 -0.00327
0.979 -0.203 0.00943
0.952 -0.306 -0.00728
0.954 -0.3 0.00327
-0.447 -0.895 -0.000271
0.913 -0.407 -0.00867
0.919 -0.395 0.00795
-0.445 -0.895 0.0033
-0.3 -0.954 -0.00335
-0.292 -0.956 0.0092
-0.128 -0.992 -0.00963
0.454 -0.891 -0.011
0.278 -0.96 0.0109
-0.114 -0.993 0.0117
0.0656 -0.998 -0.0123
0.265 -0.964 -0.0121
0.0807 -0.997 0.0117
0.466 -0.885 0.00982
0.622 -0.783 -0.00957
0.851 -0.525 -0.0075
0.858 -0.514 0.0113
0.762 -0.648 0.00902
0.63 -0.776 0.00863
0.755 -0.655 -0.00789
-0.444 -0.896 0.00168
-0.577 -0.817 -0.00156
-0.691 -0.723 -0.000407
-0.576 -0.817 0.000416
-0.666 0.746 0
-0.664 0.748 0.00353
-0.812 0.584 -0.00341
-0.81 0.587 0.00337
-0.583 -0.812 0.00914
-0.916 0.401 -0.00329
-0.915 0.404 0.00274
-0.687 -0.727 -0.00674
-0.789 -0.615 0.0101
-0.688 -0.726 -0.00867
-0.98 0.201 -0.00274
-0.979 0.205 0.0034
-1 -0.00859 -0.00348
-1 -0.00346 0.00602
-0.708 -0.706 0.0212
-0.975 -0.22 -0.00629
-0.977 -0.214 0.00576
-0.786 -0.618 -0.0237
-0.808 -0.59 0.00749
-0.906 -0.423 -0.00572
-0.904 -0.427 -0.0127
-0.444 -0.896 0.0027
-0.286 -0.958 -0.00279
0.992 -0.13 -5.92e-006
0.992 -0.129 0.000221
-0.28 -0.96 0.00688
-0.104 -0.995 -0.00705
0.637 -0.77 -0.0108
0.487 -0.874 0.0116
-0.0948 -0.995 0.00836
0.0911 -0.996 -0.00858
0.474 -0.88 -0.00938
0.299 -0.954 0.00959
0.102 -0.995 0.00862
0.288 -0.958 -0.00873
0.975 -0.224 0.0101
0.974 -0.228 -0.0003
0.949 -0.315 0.023
0.946 -0.323 -0.0127
0.652 -0.758 0.0151
0.768 -0.64 -0.0131
0.886 -0.463 0.0266
0.921 -0.39 -0.0132
0.787 -0.617 0.0215
0.862 -0.506 -0.016
-0.0873 -0.996 -0.00545
-0.0757 -0.997 -0.00443
0.109 -0.994 -0.00484
-0.0811 -0.997 0.00467
-0.0734 -0.997 -0.000563
-0.0734 -0.997 -0.000555
0.119 -0.993 0.000622
0.307 -0.952 -0.00584
0.116 -0.993 0.0058
0.495 -0.869 -0.00959
0.102 -0.994 0.0247
0.317 -0.948 0.0102
-0.0783 -0.997 -0.0141
0.323 -0.946 -0.00219
0.12 -0.993 0.00215
0.992 -0.124 -0.0102
0.978 -0.209 0.0191
0.686 -0.728 0.0229
0.513 -0.858 0.0157
0.661 -0.751 -0.0142
0.974 -0.226 -0.00377
0.793 -0.608 -0.0192
0.931 -0.365 0.00637
0.831 -0.555 0.0381
0.887 -0.46 -0.0189
0.933 -0.358 0.0252
0.836 -0.547 -0.0268
0.98 -0.2 -0.019
0.953 -0.301 -0.0297
0.869 -0.495 -0.0294
0.907 -0.42 0.0437
0.952 -0.306 0.0316
0.865 -0.501 0.0242
0.935 -0.354 -0.0205
0.694 -0.72 -0.018
0.727 -0.686 0.0267
0.338 -0.941 0.0174
0.55 -0.835 0.0193
0.523 -0.852 -0.015
0.773 -0.633 0.0327
0.59 -0.807 0.0233
0.732 -0.681 -0.0218
0.37 -0.928 0.0358
0.558 -0.83 -0.00986
0.394 -0.919 0.00833
0.0766 -0.996 -0.037
0.235 -0.972 0.0155
0.355 -0.934 -0.0388
0.233 -0.972 -0.0195
0.0628 -0.998 -0.0129
0.126 -0.991 0.0458
-0.266 -0.964 -0.00452
-0.275 -0.961 -0.00207
-0.271 -0.963 0.00544
-0.26 -0.966 0.00442
-0.247 -0.969 0.000536
-0.253 -0.967 -0.00857
-0.612 -0.791 0.0084
-0.429 -0.903 0.00915
-0.446 -0.895 0.00478
-0.439 -0.898 -0.0076
-0.447 -0.895 0.00229
-0.445 -0.895 0.00553
-0.447 -0.895 0.00209
-0.902 -0.432 0.00939
-0.776 -0.631 0.00671
-0.621 -0.784 -0.0027
-0.619 -0.785 -0.00636
-0.588 -0.809 -0.00502
-0.783 -0.622 -0.00955
-0.795 -0.605 0.0398
-0.612 -0.79 0.0297
-0.71 -0.704 -0.0146
-0.77 -0.638 -0.00917
-0.76 -0.65 0.0133
-0.974 -0.227 0.00534
-0.894 -0.448 0.00953
-0.899 -0.439 -0.00546
-0.587 -0.81 0.0156
-0.603 -0.797 -0.0122
-0.241 -0.97 -0.0133
-0.176 -0.984 0.0422
-0.419 -0.908 -0.0138
-0.395 -0.919 0.0173
-0.983 -0.18 0.036
-0.907 -0.42 0.0391
-0.947 -0.318 0.0309
-0.946 -0.323 -0.0378
-0.875 -0.482 -0.0406
-0.751 -0.66 -0.0166
-0.885 -0.465 0.0191
-0.848 -0.529 0.016
-0.773 -0.633 0.0486
-0.844 -0.536 -0.0317
-0.719 -0.695 -0.0209
-0.575 -0.818 -0.0175
-0.733 -0.68 0.0201
-0.37 -0.929 0.0272
-0.126 -0.992 0.016
-0.354 -0.935 0.0106
-0.164 -0.986 -0.0128
-0.59 -0.807 0.0274
-0.72 -0.694 -0.0249
-0.38 -0.925 -0.0221
-0.534 -0.845 -0.0238
-0.541 -0.841 0.0236
-0.892 -0.453 -0.00102
-0.973 -0.231 -0.000647
-0.976 -0.216 -0.0353
-0.973 -0.231 0.00097
-0.974 -0.224 0.0109
-0.98 0.199 0.000985
-1 -0.0111 0.000606
-1 -0.0072 -0.00941
-1 -0.012 -0.000997
-1 -0.00513 -0.0053
-0.997 -0.0641 -0.0417
-0.997 -0.0562 0.0476
-0.981 0.192 0.00623
-0.918 0.398 0.00241
-0.98 0.197 -0.00239
-0.997 0.0718 0.033
-0.982 0.19 0.0035
-0.979 0.201 -0.0319
-0.816 0.579 0.00678
-0.92 0.391 -0.00306
-0.919 0.393 -0.00632
-0.82 0.573 -0.00726
-0.675 0.738 0
-0.669 0.744 0.00837
-0.947 0.319 0.0456
-0.838 0.546 0.0208
-0.922 0.387 -0.0157
-0.59 -0.806 -0.0372
-0.907 -0.42 -0.0375
-0.852 -0.523 -0.0189
-0.87 -0.492 0.0245
-0.773 -0.633 -0.0275
-0.626 -0.779 0.00019
-0.751 -0.66 -0.000217
-0.867 -0.498 -0.0305
-0.631 -0.776 -0.0208
-0.685 -0.728 0.0192
-0.75 -0.661 -0.0309
-0.854 -0.521 -0.00475
-0.774 -0.633 0.00376
-0.126 -0.991 -0.0378
-0.477 -0.879 -0.0171
-0.263 -0.964 -0.0346
-0.37 -0.928 -0.0423
-0.267 -0.963 0.0337
-0.469 -0.883 0.0282
-0.484 -0.875 0.0193
-0.551 -0.834 0.0256
-0.559 -0.828 -0.0398
-0.385 -0.923 -0.0286
-0.471 -0.881 -0.0346
-0.389 -0.921 0.026
-0.776 -0.631 0.00167
-0.775 -0.631 -0.00255
-0.6 -0.799 0.0164
-0.587 -0.809 0.000411
-0.586 -0.81 -4.64e-005
-0.6 -0.799 -0.0168
-0.777 -0.63 0.000486
-0.684 -0.729 0.0172
-0.685 -0.728 -0.0167
-0.695 -0.719 -0.00039
0.662 0.749 -0
0.662 0.75 0
0.808 0.589 0.000558
0.662 0.75 -0.00056
0.661 0.75 0
0.916 0.402 0.000487
0.808 0.59 -0.000487
0.661 0.75 -0.00041
0.807 0.59 0.000411
0.661 0.75 0
0.661 0.75 -0.000208
0.807 0.591 0.000209
0.981 0.194 -0.000421
0.916 0.402 0.000418
0.807 0.591 -0.000323
0.916 0.402 0.000326
0.661 0.751 0
0.806 0.592 0.000522
0.661 0.751 -0.00052
0.807 0.591 -0.000719
0.915 0.403 0.000731
1 -0.031 -0.00253
0.981 0.192 0.00247
0.915 0.402 -0.000159
0.982 0.191 0.000164
0.595 -0.804 -0.0108
0.422 -0.907 0.0105
0.744 -0.668 -0.00921
0.587 -0.81 0.00877
0.87 -0.493 -0.00937
0.738 -0.674 0.00866
0.96 -0.279 -0.00603
0.999 -0.0356 0.00526
0.866 -0.499 0.00746
0.961 -0.278 -0.00796
0.917 -0.399 -0.012
0.865 -0.501 -0.0334
0.918 -0.396 0.0128
0.875 -0.485 -0.00544
0.752 -0.66 -0.00483
0.871 -0.491 0.00531
0.751 -0.66 -0.00548
0.602 -0.799 0.00525
0.874 -0.486 0.00302
0.748 -0.663 0.00265
0.875 -0.483 -0.00288
0.991 -0.136 0.00505
0.66 0.751 -0
0.66 0.751 -0.00015
0.999 -0.0467 -0.00545
0.802 0.597 0.000148
0.802 0.597 -0.000268
0.906 0.422 0.000253
0.905 0.425 -0.0055
0.999 -0.0496 0.000548
0.998 0.0552 -0.000617
0.969 0.249 0.00518
0.964 0.262 -0.036
0.997 0.0686 -0.0201
0.985 0.17 0.0111
0.908 0.418 -0.0068
0.912 0.41 -0.00519
0.803 0.595 -0.00233
0.91 0.414 0.00232
0.915 0.404 -0.00199
0.66 0.751 -0.000795
0.804 0.594 0.000794
0.914 0.406 0.00183
0.805 0.593 -0.0018
0.999 -0.0384 0.000151
0.981 0.192 0.00207
0.982 0.191 -0.00014
0.974 -0.225 0.00325
0.989 -0.145 0.00942
0.99 -0.141 -0.00313
0.952 -0.306 -0.00814
0.975 -0.224 0.00573
0.992 -0.125 -0.034
0.981 -0.193 -0.0235
0.974 0.226 0.00674
0.998 -0.0621 -0.0167
0.998 0.0565 0.013
0.972 0.234 -0.0146
0.997 -0.0699 0.0111
0.997 0.0693 -0.0186
0.977 0.211 -0.0137
0.981 0.196 -0.00505
0.979 0.203 0.00541
0.962 -0.272 0.00219
0.999 -0.0327 0.00537
0.999 -0.0372 -0.00211
0.957 -0.287 -0.0296
0.954 -0.301 0.01
0.982 -0.19 0.0121
0.96 -0.281 -0.0143
0.964 -0.265 0.00522
0.963 -0.269 -0.00318
1 -0.0122 0.0157
1 -0.0276 -0.00504
0.999 0.00475 -0.0437
0.964 -0.266 0.00636
0.992 -0.125 0.0182
0.959 -0.282 -0.0378
0.663 0.748 -0
0.222 -0.975 0.0135
0.663 0.749 -0.00138
0.81 0.587 0.00137
0.409 -0.913 -0.014
0.809 0.588 -0.0014
0.916 0.4 0.00139
0.397 -0.918 0.0119
0.916 0.401 -0.000709
0.981 0.195 0.000709
0.577 -0.817 -0.0123
0.567 -0.824 0.0127
1 -0.0234 -0.00075
0.981 0.195 0.000749
0.97 -0.243 -0.00499
1 -0.0269 0.00522
0.729 -0.685 -0.0134
0.719 -0.695 0.0204
0.898 -0.44 -0.0167
0.964 -0.265 0.0273
0.854 -0.52 -0.0234
0.844 -0.533 0.0555
-0.0811 -0.997 -0.00564
-0.279 -0.96 0.00906
-0.281 -0.96 -0.00535
-0.276 -0.961 0.00532
-0.461 -0.887 7.21e-005
-0.579 -0.815 0.01
-0.463 -0.886 -0.0133
-0.445 -0.895 -0.0274
-0.459 -0.889 0.00534
-0.468 -0.883 0.0196
-0.44 -0.898 -0.00622
0.37 -0.929 0.0137
0.553 -0.833 -0.0138
0.202 -0.979 -0.0186
0.015 -1 0.017
0.382 -0.924 -0.0146
0.187 -0.982 0.0144
-0.45 -0.893 0.00349
-0.0258 -0.999 -0.0364
-0.171 -0.985 0.0186
-0.272 -0.962 -0.0051
-0.281 -0.959 -0.0392
0.153 -0.988 0.0146
0.353 -0.935 -0.0145
-0.0468 -0.999 0.0184
0.168 -0.986 -0.0167
0.137 -0.99 -0.0121
-0.0715 -0.997 0.0124
-0.28 -0.96 0.00593
-0.0618 -0.998 -0.00574
0.666 0.746 -0
0.813 0.583 0.00311
0.665 0.747 -0.00322
0.917 0.399 -0.000878
0.981 0.194 0.000871
0.811 0.585 -0.00255
0.918 0.397 0.00248
0.807 -0.591 -0.0152
0.691 -0.723 0.0194
0.542 -0.84 0.0156
0.701 -0.713 -0.0153
1 -0.0205 -0.000565
0.981 0.194 0.000563
0.803 -0.596 0.000462
0.901 -0.433 -0.00391
0.9 -0.435 -0.000487
1 -0.0219 0.0019
0.971 -0.239 0.00427
0.972 -0.236 -0.00186
0.526 -0.85 -0.0133
0.341 -0.94 0.0136
0.327 -0.945 -0.0116
0.126 -0.992 0.0117
-0.463 -0.886 0.00333
-0.465 -0.885 -0.00065
0.114 -0.993 -0.00899
-0.0887 -0.996 0.00882
-0.292 -0.956 -0.00342
-0.097 -0.995 -0.00632
-0.287 -0.958 0.00607
-0.141 -0.99 -0.0145
-0.123 -0.992 0.012
-0.105 -0.994 0.00908
-0.114 -0.993 -0.00756
-0.297 -0.955 0.00719
-0.309 -0.951 0.0128
-0.453 -0.891 0.00989
-0.328 -0.945 -0.0137
-0.303 -0.953 -0.00268
-0.459 -0.888 0.0232
-0.467 -0.884 0.00269
0.105 -0.994 0.0104
0.0929 -0.996 -0.00943
0.068 -0.998 -0.0129
0.0836 -0.996 0.0113
0.317 -0.949 0.0119
0.303 -0.953 -0.0104
0.28 -0.96 -0.0116
0.294 -0.956 0.0112
0.799 -0.601 -0.01
0.674 -0.738 -0.0132
0.656 -0.754 -0.0111
0.667 -0.745 0.0103
0.48 -0.877 -0.0112
0.493 -0.87 0.0112
0.516 -0.857 0.0138
0.502 -0.865 -0.0117
-0.195 -0.98 0.0266
-0.337 -0.941 0.0193
-0.152 -0.988 0.015
-0.185 -0.982 -0.025
0.059 -0.998 0.00898
0.0407 -0.999 -0.0173
0.272 -0.962 0.00768
0.262 -0.965 -0.00926
0.472 -0.881 0.00922
0.463 -0.886 -0.00753
0.65 -0.76 0.00918
0.64 -0.768 -0.00905
0.901 -0.434 -0.0046
0.789 -0.614 -0.00929
0.795 -0.607 0.00442
0.784 -0.62 0.00777
0.776 -0.63 -0.0106
0.972 -0.235 -0.00071
0.897 -0.441 -0.0083
0.9 -0.436 0.000694
0.626 -0.78 -0.00446
0.634 -0.774 0.0103
0.454 -0.891 -0.00257
0.458 -0.889 0.00475
0.032 -0.999 0.00881
-0.00723 -0.999 -0.0364
0.257 -0.966 0.00271
0.25 -0.968 -0.00919
-0.0166 -0.999 0.0448
0.907 -0.42 -0.035
0.983 -0.18 -0.0347
0.946 -0.322 -0.0324
0.946 -0.323 0.0364
0.881 -0.472 0.0388
0.769 -0.638 0.0178
0.888 -0.46 -0.0223
0.836 -0.548 -0.0343
0.773 -0.633 -0.0377
0.834 -0.551 0.0348
0.75 -0.661 0.0251
0.62 -0.784 0.0108
0.754 -0.657 -0.0103
0.664 -0.746 -0.0527
0.59 -0.807 -0.0329
0.67 -0.741 0.0396
0.247 -0.969 -0.00372
0.126 -0.991 -0.034
0.258 -0.965 0.037
0.619 -0.785 0.00817
0.458 -0.889 -0.0111
0.37 -0.928 -0.0485
0.466 -0.885 0.00361
0.459 -0.888 0.0311
0.896 -0.445 0.000138
0.972 -0.234 -0.00283
0.976 -0.214 0.034
0.973 -0.232 -0.000136
0.975 -0.224 -0.0124
0.981 0.194 0.00101
1 -0.0186 0.00275
1 -0.00961 0.0109
1 -0.0164 -0.00101
0.947 0.319 -0.045
0.997 -0.0575 -0.0469
0.982 0.19 -0.00534
1 -0.00647 0.00451
0.979 0.2 0.0314
0.982 0.189 -0.00405
0.997 -0.0638 0.0404
0.997 0.0718 -0.0325
0.919 0.395 -0.00144
0.981 0.194 0.00142
0.816 0.578 -0.00627
0.921 0.39 0.00357
0.92 0.392 0.00584
0.922 0.386 0.0154
0.838 0.546 -0.0204
0.82 0.572 0.00704
0.675 0.738 -0
0.669 0.743 -0.00809
0.999 0.0507 -0.0125
0.902 0.432 0.00284
0.961 0.275 -0.00426
0.989 0.149 -0.00293
0.99 0.141 0.0109
0.989 0.145 0.00332
0.99 0.143 1.06e-006
0.961 0.276 -0.00208
0.965 0.262 0.0144
0.991 0.134 4.39e-007
0.989 0.147 -0.00959
0.991 0.133 0.00277
0.66 0.751 -0.00132
0.661 0.751 0
0.66 0.751 -0
0.66 0.751 0.000955
0.807 0.591 0.00992
0.803 0.597 -0.000929
0.804 0.595 -0.0134
0.809 0.588 0.00143
0.96 0.279 -0.00917
0.986 0.168 -0.0104
0.964 0.265 0.0144
0.964 0.264 0.0122
0.904 0.428 0.0106
0.906 0.424 -0.00793
0.913 0.407 -0.0166
0.914 0.406 0.0141
-0.666 -0.746 0
-0.667 -0.745 -0.00239
-0.794 -0.607 0.00205
-0.986 -0.167 1.13e-005
-0.985 -0.168 -0.0333
-0.8 -0.6 -0.0129
-0.885 -0.465 0.01
-0.947 -0.32 -0.0106
-0.976 -0.218 0.00727
-0.893 -0.45 -0.0128
-0.943 -0.332 0.0116
-0.806 -0.592 0.0156
-0.668 -0.744 0
-0.682 -0.731 -0
-0.678 -0.735 -0.02
-0.952 -0.304 -0.0358
-0.984 -0.173 0.0324
-0.999 -0.0408 0.00405
-0.984 -0.179 -0.0189
-0.983 -0.183 -0.0118
-0.834 -0.55 -0.0417
-0.896 -0.444 0.0199
-0.939 -0.34 -0.0405
-0.937 -0.349 0.0176
-0.845 -0.533 -0.0366
-0.905 -0.422 -0.0553
-0.905 -0.424 0.0472
-0.718 -0.693 -0.0712
-0.839 -0.543 0.0363
-0.685 -0.728 -0
-0.726 -0.685 0.0612
-0.999 0.0457 -0.00451
-0.999 0.0456 0.00431
-0.999 0.0479 -5.2e-006
-0.999 -0.0425 -0.00101
-0.999 -0.0422 0.0015
-0.999 -0.0417 -3.14e-006
-0.992 -0.127 0.00102
-0.941 -0.338 -0.000782
-0.976 -0.219 0.0045
-0.977 -0.213 0.00553
-0.976 -0.218 0.000673
-0.993 -0.117 0.00215
-0.992 -0.124 -0.00142
-0.992 -0.126 -0.00326
-0.993 -0.12 -0.00337
-0.992 -0.124 1.3e-005
-0.669 -0.743 0.00669
-0.671 -0.741 0
-0.797 -0.604 0.00959
-0.801 -0.599 -0.006
-0.993 -0.118 0.00339
-0.881 -0.474 -0.00942
-0.9 -0.434 0.0374
-0.88 -0.475 -0.00643
-0.939 -0.344 0.00903
-0.936 -0.352 -0.0184
-0.977 -0.212 -0.00512
-0.969 -0.246 0.0254
-0.999 -0.0416 -0.00272
0.587 0.808 0.0366
0.904 0.425 0.0366
0.851 0.525 0.0187
0.868 0.496 -0.0236
0.77 0.637 0.0268
0.625 0.781 -0.000972
0.749 0.662 0.0011
0.865 0.502 0.029
0.629 0.777 0.0215
0.686 0.728 -0.0193
0.748 0.663 0.0316
0.852 0.524 0.00556
0.774 0.634 -0.00438
0.93 0.368 0.00176
0.93 0.368 0.000731
0.924 0.382 0.00681
0.927 0.375 -0.0124
0.774 0.633 -0.0012
0.857 0.516 -0.00155
0.856 0.517 0.00141
0.609 0.791 -0.0468
0.856 0.517 0.00927
0.857 0.515 0.00142
0.684 0.729 0.017
0.76 0.65 -0.00164
0.765 0.643 -0.0289
0.979 0.203 0.00418
0.98 0.198 -0.00726
0.981 0.192 -0.000822
0.981 0.193 0.00156
1 0.00373 0.00239
1 0.000265 -0.00428
1 -0.00466 -0.00163
1 -0.00295 0.00147
0.811 -0.585 -0.000617
0.811 -0.585 0.000243
0.67 -0.742 0
0.67 -0.742 -0.000242
0.979 -0.202 0.00119
0.979 -0.204 -0.0024
0.916 -0.402 0.000616
0.915 -0.403 -0.00119
0.979 -0.206 0.00111
0.978 -0.207 -0.00151
0.915 -0.404 0.000658
0.915 -0.404 -0.00112
0.81 -0.586 -0.000659
0.811 -0.585 0.000253
0.67 -0.742 0
0.67 -0.742 -0.000253
0.67 -0.742 0.000699
0.67 -0.743 0
0.811 -0.585 0.00015
0.811 -0.585 -0.000701
0.916 -0.401 -6e-005
0.916 -0.401 -0.00015
0.98 -0.2 -0.00166
0.98 -0.199 6.14e-005
1 0.00811 -0.00506
1 0.0116 0.00169
0.977 0.211 -0.00926
0.976 0.218 0.00506
0.917 0.398 -0.0182
0.913 0.407 0.00929
0.488 0.873 -0.00575
0.63 0.777 0.00665
0.822 0.566 -0.0558
0.817 0.576 0.02
0.645 0.764 -0.0279
0.765 0.643 0.0179
-0.842 0.54 -0.0138
-0.709 0.705 -0.00661
-0.716 0.697 -0.0281
-0.802 0.597 0.0149
-0.843 0.537 -0.0297
-0.99 0.143 -0.00663
-0.989 0.146 0.00554
-0.991 0.136 -0.0113
-0.99 0.138 1.21e-006
-0.93 0.366 -0.0348
-0.911 0.412 0.00766
-0.93 0.368 0.0204
-0.967 0.256 0.00763
-0.975 0.221 0.0151
-0.968 0.251 -0.0149
0.47 0.882 -0.0299
0.038 0.999 -0.00461
0.248 0.969 0.00513
0.347 0.938 0.0142
0.23 0.972 -0.0388
0.0373 0.999 -0.00568
-0.584 0.811 0.00913
-0.592 0.806 -0.0163
-0.165 0.986 0.00521
-0.426 0.904 0.0197
-0.439 0.897 -0.0482
-0.187 0.982 -0.0273
-0.349 0.937 0.0163