<VTKFile type="UnstructuredGrid" version="0.1" byte_order="LittleEndian">
 <UnstructuredGrid>
  <Piece NumberOfPoints="2036" NumberOfCells="3904">
   <Points>
    <DataArray type="Float32" Name="Points" NumberOfComponents="3" format="ascii">
            0.1825        -0.349       -0.2645
           -0.1825        -0.349       -0.2645
          0.172361        -0.349       -0.2645
          0.162222        -0.349       -0.2645
          0.152083        -0.349       -0.2645
          0.141944        -0.349       -0.2645
          0.131806        -0.349       -0.2645
          0.121667        -0.349       -0.2645
          0.111528        -0.349       -0.2645
          0.101389        -0.349       -0.2645
           0.09125        -0.349       -0.2645
         0.0811111        -0.349       -0.2645
         0.0709722        -0.349       -0.2645
         0.0608333        -0.349       -0.2645
         0.0506944        -0.349       -0.2645
         0.0405556        -0.349       -0.2645
         0.0304167        -0.349       -0.2645
         0.0202778        -0.349       -0.2645
         0.0101389        -0.349       -0.2645
                 0        -0.349       -0.2645
        -0.0101389        -0.349       -0.2645
        -0.0202778        -0.349       -0.2645
        -0.0304167        -0.349       -0.2645
        -0.0405556        -0.349       -0.2645
        -0.0506944        -0.349       -0.2645
        -0.0608333        -0.349       -0.2645
        -0.0709722        -0.349       -0.2645
        -0.0811111        -0.349       -0.2645
          -0.09125        -0.349       -0.2645
         -0.101389        -0.349       -0.2645
         -0.111528        -0.349       -0.2645
         -0.121667        -0.349       -0.2645
         -0.131806        -0.349       -0.2645
         -0.141944        -0.349       -0.2645
         -0.152083        -0.349       -0.2645
         -0.162222        -0.349       -0.2645
         -0.172361        -0.349       -0.2645
            0.1825        -0.349        0.2025
           -0.1825        -0.349        0.2025
          0.172361        -0.349        0.2025
          0.162222        -0.349        0.2025
          0.152083        -0.349        0.2025
          0.141944        -0.349        0.2025
          0.131806        -0.349        0.2025
          0.121667        -0.349        0.2025
          0.111528        -0.349        0.2025
          0.101389        -0.349        0.2025
           0.09125        -0.349        0.2025
         0.0811111        -0.349        0.2025
         0.0709722        -0.349        0.2025
         0.0608333        -0.349        0.2025
         0.0506944        -0.349        0.2025
         0.0405556        -0.349        0.2025
         0.0304167        -0.349        0.2025
         0.0202778        -0.349        0.2025
         0.0101389        -0.349        0.2025
                 0        -0.349        0.2025
        -0.0101389        -0.349        0.2025
        -0.0202778        -0.349        0.2025
        -0.0304167        -0.349        0.2025
        -0.0405556        -0.349        0.2025
        -0.0506944        -0.349        0.2025
        -0.0608333        -0.349        0.2025
        -0.0709722        -0.349        0.2025
        -0.0811111        -0.349        0.2025
          -0.09125        -0.349        0.2025
         -0.101389        -0.349        0.2025
         -0.111528        -0.349        0.2025
         -0.121667        -0.349        0.2025
         -0.131806        -0.349        0.2025
         -0.141944        -0.349        0.2025
         -0.152083        -0.349        0.2025
         -0.162222        -0.349        0.2025
         -0.172361        -0.349        0.2025
           -0.1825        -0.349     -0.254564
           -0.1825        -0.349     -0.244628
           -0.1825        -0.349     -0.234692
           -0.1825        -0.349     -0.224755
           -0.1825        -0.349     -0.214819
           -0.1825        -0.349     -0.204883
           -0.1825        -0.349     -0.194947
           -0.1825        -0.349     -0.185011
           -0.1825        -0.349     -0.175074
           -0.1825        -0.349     -0.165138
           -0.1825        -0.349     -0.155202
           -0.1825        -0.349     -0.145266
           -0.1825        -0.349      -0.13533
           -0.1825        -0.349     -0.125394
           -0.1825        -0.349     -0.115457
           -0.1825        -0.349     -0.105521
           -0.1825        -0.349    -0.0955851
           -0.1825        -0.349    -0.0856489
           -0.1825        -0.349    -0.0757128
           -0.1825        -0.349    -0.0657766
           -0.1825        -0.349    -0.0558404
           -0.1825        -0.349    -0.0459043
           -0.1825        -0.349    -0.0359681
           -0.1825        -0.349    -0.0260319
           -0.1825        -0.349    -0.0160957
           -0.1825        -0.349   -0.00615957
           -0.1825        -0.349     0.0037766
           -0.1825        -0.349     0.0137128
           -0.1825        -0.349     0.0236489
           -0.1825        -0.349     0.0335851
           -0.1825        -0.349     0.0435213
           -0.1825        -0.349     0.0534574
           -0.1825        -0.349     0.0633936
           -0.1825        -0.349     0.0733298
           -0.1825        -0.349      0.083266
           -0.1825        -0.349     0.0932021
           -0.1825        -0.349      0.103138
           -0.1825        -0.349      0.113074
           -0.1825        -0.349      0.123011
           -0.1825        -0.349      0.132947
           -0.1825        -0.349      0.142883
           -0.1825        -0.349      0.152819
           -0.1825        -0.349      0.162755
           -0.1825        -0.349      0.172692
           -0.1825        -0.349      0.182628
           -0.1825        -0.349      0.192564
            0.1825        -0.349     -0.254564
            0.1825        -0.349     -0.244628
            0.1825        -0.349     -0.234692
            0.1825        -0.349     -0.224755
            0.1825        -0.349     -0.214819
            0.1825        -0.349     -0.204883
            0.1825        -0.349     -0.194947
            0.1825        -0.349     -0.185011
            0.1825        -0.349     -0.175074
            0.1825        -0.349     -0.165138
            0.1825        -0.349     -0.155202
            0.1825        -0.349     -0.145266
            0.1825        -0.349      -0.13533
            0.1825        -0.349     -0.125394
            0.1825        -0.349     -0.115457
            0.1825        -0.349     -0.105521
            0.1825        -0.349    -0.0955851
            0.1825        -0.349    -0.0856489
            0.1825        -0.349    -0.0757128
            0.1825        -0.349    -0.0657766
            0.1825        -0.349    -0.0558404
            0.1825        -0.349    -0.0459043
            0.1825        -0.349    -0.0359681
            0.1825        -0.349    -0.0260319
            0.1825        -0.349    -0.0160957
            0.1825        -0.349   -0.00615957
            0.1825        -0.349     0.0037766
            0.1825        -0.349     0.0137128
            0.1825        -0.349     0.0236489
            0.1825        -0.349     0.0335851
            0.1825        -0.349     0.0435213
            0.1825        -0.349     0.0534574
            0.1825        -0.349     0.0633936
            0.1825        -0.349     0.0733298
            0.1825        -0.349      0.083266
            0.1825        -0.349     0.0932021
            0.1825        -0.349      0.103138
            0.1825        -0.349      0.113074
            0.1825        -0.349      0.123011
            0.1825        -0.349      0.132947
            0.1825        -0.349      0.142883
            0.1825        -0.349      0.152819
            0.1825        -0.349      0.162755
            0.1825        -0.349      0.172692
            0.1825        -0.349      0.182628
            0.1825        -0.349      0.192564
          0.165818        -0.349      0.194508
          0.157129        -0.349      0.193816
          0.147113        -0.349      0.193918
          0.136995        -0.349      0.193847
          0.126853        -0.349      0.193787
          0.116702        -0.349      0.193759
          0.106547        -0.349      0.193751
         0.0963959        -0.349      0.193749
         0.0862485        -0.349      0.193748
         0.0761043        -0.349      0.193747
          0.065962        -0.349      0.193747
         0.0558209        -0.349      0.193747
         0.0456804        -0.349      0.193747
         0.0355404        -0.349      0.193747
         0.0254006        -0.349      0.193747
          0.015261        -0.349      0.193747
        0.00512159        -0.349      0.193747
       -0.00501768        -0.349      0.193747
        -0.0151568        -0.349      0.193748
        -0.0252959        -0.349      0.193748
        -0.0354348        -0.349      0.193748
        -0.0455736        -0.349      0.193749
        -0.0557122        -0.349      0.193749
        -0.0658508        -0.349       0.19375
        -0.0759892        -0.349      0.193751
        -0.0861275        -0.349      0.193751
        -0.0962656        -0.349      0.193752
         -0.106404        -0.349      0.193754
         -0.116552        -0.349      0.193734
         -0.126721        -0.349      0.193666
         -0.136926        -0.349      0.193506
         -0.147028        -0.349      0.193422
         -0.157136        -0.349      0.193468
         -0.165873        -0.349      0.194432
          -0.17337        -0.349     -0.251363
         -0.173362        -0.349      -0.24055
          -0.17368        -0.349     -0.230126
         -0.173713        -0.349     -0.219998
          -0.17373        -0.349     -0.209965
         -0.173767        -0.349     -0.199968
         -0.173809        -0.349     -0.189989
[...]
   <PointData>
    <DataArray type="Float32" Name="node_area" format="ascii">
      1.67904e-005
      1.67904e-005
      6.65581e-005
      4.04836e-005
      4.39539e-005
      4.40285e-005
      4.43469e-005
      4.45215e-005
      4.45682e-005
       4.4546e-005
       4.4499e-005
      4.44532e-005
      4.44189e-005
      4.43972e-005
      4.43852e-005
      4.43791e-005
       4.4376e-005
      4.43741e-005
      4.43727e-005
      4.43714e-005
      4.43702e-005
      4.43687e-005
      4.43668e-005
      4.43646e-005
      4.43621e-005
      4.43592e-005
      4.43557e-005
      4.43514e-005
      4.43504e-005
      4.43337e-005
      4.43267e-005
      4.44837e-005
      4.50437e-005
      4.55196e-005
      4.55951e-005
      4.12055e-005
      6.65433e-005
      1.67904e-005
      1.67904e-005
      6.64912e-005
      4.01681e-005
      4.35882e-005
      4.36569e-005
      4.40233e-005
      4.42582e-005
       4.4353e-005
      4.43756e-005
      4.43785e-005
      4.43781e-005
      4.43775e-005
      4.43769e-005
      4.43759e-005
      4.43751e-005
      4.43744e-005
      4.43736e-005
      4.43726e-005
      4.43714e-005
      4.43702e-005
      4.43687e-005
      4.43668e-005
      4.43646e-005
      4.43621e-005
      4.43592e-005
      4.43557e-005
      4.43514e-005
      4.43464e-005
      4.43406e-005
      4.44013e-005
      4.46552e-005
      4.52855e-005
      4.57515e-005
       4.5859e-005
      4.12298e-005
      6.65894e-005
      5.24381e-005
      4.67158e-005
      4.53038e-005
      4.40155e-005
       4.3752e-005
      4.35661e-005
      4.33446e-005
      4.31399e-005
      4.29953e-005
      4.29105e-005
      4.28678e-005
      4.28499e-005
      4.28443e-005
      4.28432e-005
      4.28434e-005
      4.28438e-005
      4.28441e-005
      4.28443e-005
      4.28444e-005
      4.28446e-005
      4.28447e-005
       4.2845e-005
      4.28457e-005
      4.28463e-005
      4.28471e-005
      4.28482e-005
      4.28493e-005
      4.28506e-005
      4.28522e-005
      4.28538e-005
      4.28556e-005
       4.2858e-005
      4.28606e-005
      4.28634e-005
      4.28668e-005
      4.28707e-005
      4.28751e-005
      4.28804e-005
      4.29038e-005
      4.30067e-005
      4.32317e-005
      4.35249e-005
      4.40446e-005
      4.53195e-005
      4.64575e-005
      5.23961e-005
       5.2621e-005
      4.76621e-005
       4.6757e-005
      4.50964e-005
      4.39446e-005
      4.32178e-005
      4.33503e-005
       4.3715e-005
      4.34699e-005
      4.32893e-005
      4.31277e-005
      4.30069e-005
      4.29288e-005
      4.28848e-005
       4.2862e-005
      4.28516e-005
      4.28473e-005
      4.28455e-005
      4.28449e-005
      4.28447e-005
      4.28447e-005
      4.28451e-005
      4.28457e-005
      4.28463e-005
      4.28471e-005
      4.28482e-005
      4.28493e-005
      4.28506e-005
      4.28522e-005
      4.28538e-005
      4.28556e-005
       4.2858e-005
      4.28606e-005
      4.28634e-005
      4.28668e-005
      4.28707e-005
      4.28751e-005
      4.28835e-005
       4.2889e-005
      4.29877e-005
      4.34192e-005
      4.44901e-005
      4.57812e-005
      4.70306e-005
      4.73624e-005
      5.25306e-005
      6.96176e-005
      8.52401e-005
       8.6767e-005
      8.79754e-005
      8.85485e-005
      8.87606e-005
      8.87934e-005
      8.87885e-005
      8.87788e-005
      8.87703e-005
      8.87636e-005
       8.8758e-005
      8.87534e-005
      8.87496e-005
      8.87461e-005
      8.87429e-005
      8.87397e-005
      8.87362e-005
      8.87326e-005
      8.87285e-005
      8.87234e-005
      8.87178e-005
      8.87115e-005
       8.8704e-005
      8.86955e-005
      8.86853e-005
      8.86757e-005
      8.87487e-005
      8.90443e-005
      8.97995e-005
      9.09679e-005
      9.11439e-005
      8.86612e-005
      7.03245e-005
      9.99172e-005
       9.6909e-005
      8.99381e-005
      8.85365e-005
      8.78476e-005
      8.72345e-005
      8.66674e-005
      8.62412e-005
      8.59613e-005
      8.57997e-005
      8.57199e-005
      8.56881e-005
        8.568e-005
      8.56806e-005
      8.56834e-005
      8.56858e-005
      8.56876e-005
       8.5689e-005
      8.56902e-005
      8.56913e-005
      8.56925e-005
      8.56939e-005
      8.56956e-005
      8.56974e-005
      8.56997e-005
      8.57023e-005
      8.57054e-005
      8.57089e-005
      8.57128e-005
      8.57171e-005
      8.57219e-005
      8.57273e-005
      8.57336e-005
      8.57406e-005
      8.57486e-005
      8.57577e-005
      8.57502e-005
      8.57422e-005
      8.59042e-005
      8.64631e-005
      8.72616e-005
       8.8344e-005
      9.00295e-005
      9.67274e-005
       9.9771e-005
      6.99734e-005
      8.61998e-005
      8.77104e-005
      8.87518e-005
      8.92236e-005
      8.94073e-005
      8.93721e-005
        8.924e-005
       8.9091e-005
      8.89641e-005
      8.88725e-005
       8.8814e-005
        8.878e-005
      8.87615e-005
      8.87512e-005
      8.87451e-005
      8.87406e-005
      8.87365e-005
      8.87327e-005
      8.87286e-005
      8.87234e-005
      8.87178e-005
      8.87115e-005
       8.8704e-005
      8.86955e-005
      8.87024e-005
      8.87018e-005
      8.87062e-005
      8.88978e-005
      8.95967e-005
      9.08459e-005
      9.09915e-005
      8.86556e-005
      7.03281e-005
       0.000100941
       0.000100176
      9.33821e-005
      8.88169e-005
      8.56256e-005
      8.60925e-005
      8.80801e-005
       8.8379e-005
      8.74891e-005
       8.6858e-005
      8.64036e-005
      8.60946e-005
       8.5901e-005
      8.57909e-005
      8.57341e-005
       8.5708e-005
      8.56966e-005
      8.56924e-005
      8.56913e-005
      8.56917e-005
      8.56927e-005
       8.5694e-005
      8.56956e-005
      8.56974e-005
      8.56997e-005
      8.57023e-005
      8.57054e-005
      8.57089e-005
      8.57128e-005
      8.57171e-005
      8.57219e-005
      8.57273e-005
      8.57336e-005
      8.57406e-005
      8.57486e-005
      8.57577e-005
      8.57672e-005
      8.57412e-005
      8.58066e-005
      8.63986e-005
      8.80534e-005
      9.09411e-005
      9.36017e-005
       9.9468e-005
       0.000100385
       0.000107758
      8.53574e-005
      8.80505e-005
       8.9022e-005
      8.92668e-005
      8.90631e-005
      8.89418e-005
      8.88646e-005
      8.88145e-005
      8.87861e-005
      8.87701e-005
      8.87598e-005
      8.87517e-005
      8.87445e-005
      8.87386e-005
      8.87332e-005
      8.87281e-005
      8.87226e-005
      8.87168e-005
      8.87109e-005
      8.87042e-005
      8.86965e-005
      8.86878e-005
      8.86779e-005
      8.86669e-005
      8.86761e-005
      8.87363e-005
      8.88001e-005
      8.90158e-005
      8.93911e-005
      9.38134e-005
      9.13339e-005
       0.000107951
       0.000108187
      8.84013e-005
      8.93566e-005
      8.89013e-005
      8.81345e-005
      8.71984e-005
      8.65671e-005
      8.61543e-005
      8.58939e-005
      8.57478e-005
      8.56804e-005
      8.56599e-005
      8.56612e-005
      8.56697e-005
      8.56779e-005
      8.56842e-005
      8.56886e-005
       8.5692e-005
      8.56948e-005
      8.56972e-005
      8.56994e-005
      8.57018e-005
      8.57045e-005
      8.57075e-005
      8.57107e-005
      8.57144e-005
      8.57185e-005
       8.5723e-005
      8.57281e-005
      8.57339e-005
      8.57402e-005
      8.57473e-005
      8.57553e-005
      8.57641e-005
      8.57741e-005
      8.57059e-005
      8.54795e-005
      8.54392e-005
      8.61639e-005
      8.76462e-005
      8.89487e-005
      8.94589e-005
      8.83631e-005
       0.000109082
      8.65243e-005
      8.87954e-005
      8.95611e-005
      8.99518e-005
      8.99518e-005
      8.97835e-005
      8.95335e-005
      8.92792e-005
      8.90761e-005
      8.89349e-005
      8.88455e-005
      8.87926e-005
       8.8763e-005
      8.87466e-005
      8.87365e-005
      8.87293e-005
      8.87232e-005
      8.87171e-005
       8.8711e-005
      8.87042e-005
      8.86966e-005
      8.86878e-005
      8.86779e-005
      8.86968e-005
       8.8736e-005
      8.88175e-005
      8.89902e-005
      8.94083e-005
      9.00252e-005
      9.45272e-005
      9.18165e-005
      9.51591e-005
        9.494e-005
       8.1821e-005
      8.16252e-005
      8.87741e-005
      8.97873e-005
      8.94934e-005
      8.82436e-005
       8.7302e-005
      8.66612e-005
      8.62398e-005
      8.59781e-005
      8.58289e-005
      8.57516e-005
      8.57157e-005
      8.57011e-005
      8.56967e-005
      8.56963e-005
      8.56975e-005
      8.56995e-005
      8.57019e-005
      8.57046e-005
      8.57075e-005
      8.57107e-005
      8.57144e-005
      8.57185e-005
       8.5723e-005
      8.57281e-005
      8.57339e-005
      8.57402e-005
      8.57473e-005
      8.57553e-005
      8.57641e-005
      8.57734e-005
      8.57425e-005
      8.55185e-005
      8.52376e-005
      8.54918e-005
      8.68019e-005
      8.88977e-005
      9.49557e-005
      9.40043e-005
      6.78248e-005
      8.63325e-005
      8.91145e-005
      8.99034e-005
      8.93896e-005
      8.92368e-005
      8.90556e-005
      8.88899e-005
      8.87946e-005
      8.87589e-005
      8.87502e-005
      8.87471e-005
      8.87427e-005
      8.87366e-005
      8.87296e-005
      8.87224e-005
      8.87153e-005
      8.87078e-005
      8.86998e-005
       8.8692e-005
      8.86832e-005
      8.86734e-005
      8.86625e-005
      8.86499e-005
      8.87138e-005
       8.8879e-005
      8.88387e-005
      8.83773e-005
      8.77984e-005
      8.58845e-005
       0.000104372
      6.77742e-005
      6.81407e-005
      8.71674e-005
      8.90986e-005
      8.87154e-005
      8.73685e-005
      8.67639e-005
      8.63577e-005
      8.60294e-005
      8.57931e-005
      8.56627e-005
      8.56149e-005
      8.56141e-005
       8.5632e-005
      8.56532e-005
      8.56699e-005
      8.56818e-005
      8.56894e-005
      8.56948e-005
      8.56992e-005
      8.57027e-005
      8.57063e-005
      8.57101e-005
      8.57141e-005
      8.57182e-005
      8.57228e-005
      8.57276e-005
      8.57326e-005
      8.57385e-005
      8.57448e-005
      8.57517e-005
      8.57598e-005
      8.57687e-005
      8.57785e-005
      8.57894e-005
      8.56583e-005
       8.5187e-005
      8.45617e-005
      8.51369e-005
      8.72117e-005
      8.95579e-005
      8.98978e-005
      8.71047e-005
      6.89131e-005
      8.69579e-005
      8.95828e-005
      9.08182e-005
      9.09062e-005
      9.07152e-005
      9.04072e-005
      8.99812e-005
      8.95572e-005
      8.92231e-005
      8.90037e-005
      8.88736e-005
      8.88008e-005
      8.87613e-005
      8.87393e-005
      8.87259e-005
      8.87166e-005
      8.87083e-005
      8.87001e-005
      8.86921e-005
      8.86833e-005
      8.86734e-005
      8.86625e-005
      8.86642e-005
      8.86623e-005
      8.87317e-005
      8.91057e-005
      8.94177e-005
      8.92636e-005
      8.71895e-005
       0.000105204
       0.000107751
      8.81251e-005
      6.72851e-005
      9.29119e-005
      9.26874e-005
      9.08303e-005
      8.97308e-005
      8.84654e-005
      8.74773e-005
      8.67764e-005
      8.63041e-005
      8.60083e-005
      8.58391e-005
       8.5753e-005
      8.57152e-005
      8.57014e-005
      8.56987e-005
      8.56999e-005
      8.57027e-005
      8.57061e-005
        8.571e-005
      8.57141e-005
      8.57182e-005
      8.57228e-005
      8.57276e-005
      8.57326e-005
      8.57385e-005
      8.57448e-005
      8.57517e-005
      8.57598e-005
      8.57687e-005
      8.57785e-005
       8.5804e-005
      8.57735e-005
      8.53459e-005
      8.43319e-005
      8.39778e-005
      8.49606e-005
      8.65774e-005
      8.61734e-005
       0.000105083
      8.96491e-005
      9.32677e-005
      8.98604e-005
      8.97121e-005
      8.93641e-005
      8.89856e-005
      8.87552e-005
      8.86684e-005
      8.86668e-005
      8.86924e-005
      8.87143e-005
       8.8724e-005
      8.87237e-005
      8.87183e-005
      8.87105e-005
      8.87018e-005
      8.86925e-005
      8.86827e-005
      8.86725e-005
      8.86616e-005
      8.86496e-005
      8.86467e-005
      8.88004e-005
      8.91421e-005
      8.92933e-005
      8.88149e-005
      8.76394e-005
      8.48101e-005
      6.62073e-005
      8.95402e-005
      9.19201e-005
      8.74059e-005
      8.68916e-005
      8.65924e-005
      8.62572e-005
       8.5934e-005
      8.57117e-005
      8.55936e-005
      8.55573e-005
      8.55704e-005
       8.5603e-005
      8.56356e-005
      8.56609e-005
      8.56784e-005
      8.56897e-005
      8.56974e-005
      8.57034e-005
      8.57087e-005
      8.57136e-005
      8.57185e-005
      8.57236e-005
      8.57289e-005
      8.57347e-005
      8.57409e-005
      8.57476e-005
      8.57549e-005
      8.57629e-005
      8.57716e-005
      8.57809e-005
      8.57916e-005
      8.58035e-005
      8.56813e-005
      8.52414e-005
      8.45237e-005
      8.43314e-005
      8.63765e-005
      8.94194e-005
      9.46985e-005
      8.98257e-005
      9.24155e-005
      9.21641e-005
      9.22926e-005
      9.20667e-005
      9.12875e-005
      9.04635e-005
      8.97781e-005
      8.93161e-005
      8.90383e-005
      8.88821e-005
      8.87979e-005
      8.87533e-005
      8.87288e-005
      8.87139e-005
      8.87027e-005
      8.86926e-005
      8.86827e-005
      8.86726e-005
      8.86616e-005
      8.86463e-005
       8.8592e-005
      8.84676e-005
       8.8359e-005
      8.85838e-005
      8.92541e-005
      8.88656e-005
      8.58524e-005
      7.34826e-005
       0.000138746
       0.000103449
      9.41383e-005
      9.07657e-005
      8.94308e-005
      8.83766e-005
      8.74851e-005
      8.67926e-005
       8.6305e-005
      8.59953e-005
      8.58206e-005
      8.57363e-005
      8.57032e-005
       8.5695e-005
       8.5697e-005
      8.57022e-005
      8.57077e-005
      8.57128e-005
      8.57182e-005
      8.57236e-005
      8.57289e-005
      8.57347e-005
      8.57409e-005
      8.57476e-005
      8.57549e-005
      8.57629e-005
      8.57716e-005
      8.57809e-005
      8.57916e-005
       8.5867e-005
      8.60177e-005
      8.57433e-005
      8.44694e-005
       8.3021e-005
       8.3696e-005
       8.5547e-005
      8.49596e-005
       0.000103842
      8.78709e-005
      9.03336e-005
      9.02856e-005
      8.94563e-005
      8.89269e-005
      8.86657e-005
      8.85753e-005
       8.8586e-005
       8.8634e-005
      8.86774e-005
      8.87018e-005
      8.87091e-005
      8.87064e-005
      8.86987e-005
      8.86884e-005
      8.86776e-005
      8.86657e-005
      8.86531e-005
      8.86398e-005
      8.86774e-005
      8.89678e-005
      8.94076e-005
        8.977e-005
      8.99191e-005
      8.92422e-005
      8.60293e-005
       0.000104601
      6.64316e-005
        0.00010242
      8.49611e-005
      8.68349e-005
      8.70093e-005
      8.66915e-005
      8.61227e-005
      8.57919e-005
       8.5616e-005
      8.55322e-005
      8.55138e-005
      8.55382e-005
      8.55801e-005
      8.56217e-005
      8.56539e-005
       8.5676e-005
      8.56904e-005
      8.57001e-005
      8.57077e-005
      8.57143e-005
      8.57202e-005
      8.57263e-005
      8.57327e-005
      8.57395e-005
      8.57467e-005
      8.57543e-005
      8.57625e-005
      8.57712e-005
      8.57808e-005
      8.57912e-005
      8.58028e-005
      8.58294e-005
      8.58031e-005
      8.55972e-005
      8.51755e-005
      8.48327e-005
      8.05157e-005
      8.60827e-005
      9.13458e-005
      9.01072e-005
      9.48373e-005
      9.30623e-005
      9.29053e-005
      9.39171e-005
      9.29647e-005
      9.17659e-005
      9.05063e-005
      8.97041e-005
      8.92352e-005
       8.8976e-005
      8.88389e-005
      8.87687e-005
      8.87326e-005
      8.87123e-005
      8.86989e-005
      8.86875e-005
      8.86767e-005
      8.86654e-005
      8.86532e-005
       8.8621e-005
      8.84888e-005
      8.82924e-005
      8.80572e-005
      8.79537e-005
      8.79394e-005
      9.18167e-005
      8.85453e-005
      9.58791e-005
       9.3756e-005
      9.11451e-005
      8.99652e-005
       8.9128e-005
      8.82512e-005
      8.74139e-005
       8.6731e-005
      8.62429e-005
      8.59363e-005
      8.57709e-005
       8.5699e-005
       8.5679e-005
      8.56817e-005
      8.56916e-005
       8.5702e-005
      8.57112e-005
      8.57189e-005
      8.57258e-005
      8.57326e-005
      8.57394e-005
      8.57466e-005
      8.57543e-005
      8.57625e-005
      8.57712e-005
      8.57808e-005
      8.57912e-005
      8.58014e-005
      8.59169e-005
      8.62608e-005
      8.65863e-005
      8.58501e-005
      8.44319e-005
      7.90251e-005
      8.36729e-005
      6.60616e-005
      8.83701e-005
      6.77656e-005
      8.84294e-005
      9.10081e-005
      9.00263e-005
       8.9397e-005
      8.89612e-005
      8.86828e-005
      8.85563e-005
        8.855e-005
      8.86001e-005
      8.86529e-005
      8.86857e-005
      8.86978e-005
      8.86963e-005
      8.86876e-005
       8.8676e-005
      8.86631e-005
       8.8649e-005
      8.86346e-005
      8.87314e-005
      8.91739e-005
      8.98666e-005
      9.01354e-005
      9.00776e-005
      9.14351e-005
      8.85981e-005
      6.78413e-005
      6.54888e-005
      8.43222e-005
      8.67792e-005
      8.69228e-005
       8.6025e-005
      8.57794e-005
      8.56621e-005
      8.55629e-005
      8.54968e-005
      8.54841e-005
      8.55142e-005
      8.55637e-005
      8.56123e-005
      8.56497e-005
      8.56752e-005
      8.56917e-005
      8.57027e-005
      8.57113e-005
       8.5719e-005
      8.57265e-005
      8.57338e-005
      8.57417e-005
        8.575e-005
      8.57584e-005
      8.57675e-005
      8.57772e-005
      8.57874e-005
      8.57987e-005
       8.5827e-005
      8.59576e-005
      8.61656e-005
      8.61546e-005
      8.58152e-005
      8.62242e-005
      8.52905e-005
      6.69546e-005
      9.44299e-005
      8.94933e-005
      9.67789e-005
      9.39257e-005
      9.25285e-005
      9.07325e-005
      8.98855e-005
      8.93989e-005
      8.90991e-005
      8.89125e-005
      8.88024e-005
      8.87428e-005
      8.87121e-005
      8.86951e-005
      8.86836e-005
       8.8673e-005
      8.86611e-005
      8.86478e-005
      8.85792e-005
      8.83405e-005
      8.80586e-005
      8.80164e-005
      8.78369e-005
      8.70836e-005
      8.45897e-005
        8.759e-005
      8.98136e-005
      9.03145e-005
      8.99125e-005
      8.91455e-005
      8.81787e-005
      8.72633e-005
      8.65492e-005
      8.60747e-005
      8.58023e-005
      8.56732e-005
      8.56334e-005
      8.56385e-005
      8.56596e-005
      8.56814e-005
      8.56995e-005
      8.57135e-005
      8.57238e-005
      8.57328e-005
      8.57415e-005
      8.57499e-005
      8.57584e-005
      8.57675e-005
      8.57772e-005
      8.57874e-005
      8.57987e-005
       8.5805e-005
      8.58883e-005
      8.61658e-005
       8.6643e-005
      8.70889e-005
      8.66084e-005
      8.36565e-005
      6.46746e-005
        0.00010759
      9.88865e-005
       9.0937e-005
      8.98891e-005
      8.94253e-005
      8.89532e-005
      8.85402e-005
      8.83633e-005
         8.84e-005
      8.85165e-005
      8.86145e-005
      8.86696e-005
      8.86895e-005
      8.86889e-005
      8.86791e-005
      8.86652e-005
      8.86496e-005
      8.86333e-005
      8.87416e-005
      8.92092e-005
      9.01604e-005
      9.06326e-005
      8.92741e-005
      9.01258e-005
       0.000100086
       0.000101752
      8.71463e-005
      8.99358e-005
      8.59448e-005
      8.57725e-005
       8.5756e-005
      8.56553e-005
      8.55265e-005
      8.54598e-005
      8.54557e-005
      8.54945e-005
      8.55515e-005
      8.56062e-005
      8.56482e-005
      8.56763e-005