<?xml version="1.0"?>
<VTKFile type="UnstructuredGrid" version="0.1" byte_order="LittleEndian"  compressor="vtkZLibDataCompressor">
  <UnstructuredGrid>
    <Piece NumberOfPoints="390" NumberOfCells="754">
      <CellData>
        <DataArray type="Int32" Name="CellTypes" format="ascii">
          1 1 1 1 1 1
          2 2 2 2 2 2
          2 2 2 2 2 2
          2 2 2 2 2 2
          2 2 2 2 2 2
          2 2 2 2 2 2
          2 2 2 2 2 2
          2 2 2 2 2 2
          2 2 2 2 2 2
          2 2 2 2 2 2
          2 2 2 2 2 2
          2 2 2 2 2 2
          2 2 2 2 2 2
          2 2 2 2 2 2
          2 2 2 2 2 2
          2 2 2 2 2 2
          2 2 2 2 2 2
          2 2 2 2 2 2
          2 2 2 2 2 2
          2 2 2 2 2 2
          2 2 2 2 2 2
          2 2 2 2 2 2
          2 2 2 2 2 2
          2 2 2 2 2 2
          2 2 2 2 2 2
          2 2 2 2 2 2
          2 2 2 2 2 2
          2 2 2 2 2 2
          2 2 2 2 2 2
          2 2 2 2 2 2
          2 2 2 2 2 2
          2 2 2 2 2 2
          2 2 2 2 2 2
          2 2 2 2 2 2
          2 2 2 2 2 2
          2 2 2 2 2 2
          2 2 2 2 2 2
          2 2 2 2 2 2
          2 2 2 2 2 2
          2 2 2 2 2 2
          2 2 2 2 2 2
          2 2 2 2 2 2
          2 2 2 2 2 2
          2 2 2 2 2 2
          2 2 2 2 2 2
          2 2 2 2 2 2
          2 2 2 2 2 2
          2 2 2 2 2 2
          2 2 2 2 2 2
          2 2 2 2 2 2
          2 2 2 2 2 2
          2 2 2 2 2 2
          2 2 2 2 2 2
          2 2 2 2 2 2
          2 2 2 2 2 2
          2 2 2 2 2 2
          2 2 2 2 2 2
          2 2 2 2 2 2
          2 2 2 2 2 2
          2 2 2 2 2 2
          2 2 2 2 2 2
          2 2 2 2 2 2
          2 2 2 2 2 2
          2 2 2 2 2 2
          2 2 2 2 2 2
          2 2 2 2 2 2
          2 2 2 2 2 2
          2 2 2 2 2 2
          2 2 2 2 2 2
          2 2 2 2 2 2
          2 2 2 2 2 2
          2 2 2 2 2 2
          2 2 2 2 2 2
          2 2 2 2 2 2
          2 2 2 2 2 2
          2 2 2 2 2 2
          2 2 2 2 2 2
          2 2 2 2 2 2
          2 2 2 2 2 2
          2 2 2 2 2 2
          2 2 2 2 2 2
          2 2 2 2 2 2
          2 2 2 2 2 2
          2 2 2 2 2 2
          2 2 2 2 2 2
          2 2 2 2 2 2
          2 2 2 2 2 2
          2 2 2 2 2 2
          2 2 2 2 2 2
          2 2 2 2 2 2
          2 2 2 2 2 2
          2 2 2 2 2 2
          2 2 2 2 2 2
          2 2 2 2 2 2
          2 2 2 2 2 2
          2 2 2 2 2 2
          2 2 2 2 2 2
          2 2 2 2 2 2
          2 2 2 2 2 2
          2 2 2 2 2 2
          2 2 2 2 2 2
          2 2 2 2 2 2
          2 2 2 2 2 2
          2 2 2 2 2 2
          2 2 2 2 2 2
          2 2 2 2 2 2
          2 2 2 2 2 2
          2 2 2 2 2 2
          2 2 2 2 2 2
          2 2 2 2 2 2
          2 2 2 2 2 2
          2 2 2 2 2 2
          2 2 2 2 2 2
          2 2 2 2 2 2
          2 2 2 2 2 2
          2 2 2 2 2 2
          2 2 2 2 2 2
          2 2 2 2 2 2
          2 2 2 2 2 2
          2 2 2 2 2 2
          2 2 2 2 2 2
          2 2 2 2 2 2
          2 2 2 2 2 2
          2 2 2 2 2 2
          2 2 2 2 2 2
          2 2 2 2
        </DataArray>
        <DataArray type="Float32" Name="NHit" format="ascii">
          0 0 0 0 0 0
          0 0 0 0 0 0
          0 0 0 0 0 0
          0 0 0 0 0 0
          0 0 0 0 0 0
          0 0 0 0 0 0
          0 0 0 0 0 0
          0 0 0 0 0 0
          0 0 0 0 0 0
          0 0 0 0 0 0
          0 0 0 0 0 0
          0 0 0 0 0 0
          0 0 0 0 0 0
          0 0 0 0 0 0
          0 0 0 0 0 0
          0 0 0 0 0 0
          0 0 0 0 0 0
          0 0 0 0 0 0
          0 0 0 0 0 0
          0 0 0 0 0 0
          0 0 0 0 0 0
          0 0 0 0 0 0
          0 0 0 0 0 0
          0 0 0 0 0 0
          0 0 0 0 0 0
          0 0 0 0 0 0
          0 0 0 0 0 0
          0 0 0 0 0 0
          0 0 0 0 0 0
          0 0 0 0 0 0
          0 0 0 0 0 0
          0 0 0 0 0 0
          0 0 0 0 0 0
          0 0 0 0 0 0
          0 0 0 0 0 0
          0 0 0 0 0 0
          0 0 0 0 0 0
          0 0 0 0 0 0
          0 0 0 0 0 0
          0 0 0 0 0 0
          0 0 0 0 0 0
          0 0 0 0 0 0
          0 0 0 0 0 0
          0 0 0 0 0 0
          0 0 0 0 0 0
          0 0 0 0 0 0
          0 0 0 0 0 0
          0 0 0 0 0 0
          0 0 0 0 0 0
          0 0 0 0 0 0
          0 0 0 0 0 0
          0 0 0 0 0 0
          0 0 0 0 0 0
          0 0 0 0 0 0
          0 0 0 0 0 0
          0 0 0 0 0 0
          0 0 0 0 0 0
          0 0 0 0 0 0
          0 0 0 0 0 0
          0 0 0 0 0 0
          0 0 0 0 0 0
          0 0 0 0 0 0
          0 0 0 0 0 0
          0 0 0 0 0 0
          0 0 0 0 0 0
          0 0 0 0 0 0
          0 0 0 0 0 0
          0 0 0 0 0 0
          0 0 0 0 0 0
          0 0 0 0 0 0
          0 0 0 0 0 0
          0 0 0 0 0 0
          0 0 0 0 0 0
          0 0 0 0 0 0
          0 0 0 0 0 0
          0 0 0 0 0 0
          0 0 0 0 0 0
          0 0 0 0 0 0
          0 0 0 0 0 0
          0 0 0 0 0 0
          0 0 0 0 0 0
          0 0 0 0 0 0
          0 0 0 0 0 0
          0 0 0 0 0 0
          0 0 0 0 0 0
          0 0 0 0 0 0
          0 0 0 0 0 0
          0 0 0 0 0 0
          0 0 0 0 0 0
          0 0 0 0 0 0
          0 0 0 0 0 0
          0 0 0 0 0 0
          0 0 0 0 0 0
          0 0 0 0 0 0
          0 0 0 0 0 0
          0 0 0 0 0 0
          0 0 0 0 0 0
          0 0 0 0 0 0
          0 0 0 0 0 0
          0 0 0 0 0 0
          0 0 0 0 0 0
          0 0 0 0 0 0
          0 0 0 0 0 0
          0 0 0 0 0 0
          0 0 0 0 0 0
          0 0 0 0 0 0
          0 0 0 0 0 0
          0 0 0 0 0 0
          0 0 0 0 0 0
          0 0 0 0 0 0
          0 0 0 0 0 0
          0 0 0 0 0 0
          0 0 0 0 0 0
          0 0 0 0 0 0
          0 0 0 0 0 0
          0 0 0 0 0 0
          0 0 0 0 0 0
          0 0 0 0 0 0
          0 0 0 0 0 0
          0 0 0 0 0 0
          0 0 0 0 0 0
          0 0 0 0 0 0
          0 0 0 0 0 0
          0 0 0 0 0 0
          0 0 0 0 0 0
          0 0 0 0 -nan
        </DataArray>
      </CellData>
      <Points>
        <DataArray type="Float64" Name="Points" format="ascii" NumberOfComponents="3">
          1 0 0 0 1 0
          -1 0 0 -5 0 10
          5 0 10 0 5 10
          -0.282345 3.90109 6.88524 2.04499 3.39547 6.95225
          1.27276 -3.68047 6.86404 2.72079 -2.99512 7.06289
          3.55989 -1.70375 6.93008 3.9338 -0.105504 6.9155
          3.67525 1.54412 6.98202 2.67278 2.87019 6.89866
          -0.634691 4.35954 7.63534 0.263199 4.38239 7.60721
          2.01477 3.94545 7.68178 3.3538 2.83333 7.60746
          4.22256 1.27028 7.64281 4.36532 -0.502007 7.61422
          0.100506 -4.40242 7.63175 1.91106 -3.94282 7.59126
          3.34236 -2.89887 7.67081 -0.179053 -4.73984 8.41826
          1.70179 -4.40514 8.35723 3.29115 -3.40598 8.39763
          4.34232 -1.8621 8.36389 4.72798 -0.033604 8.37362
          4.36455 1.81962 8.37529 -0.0691709 4.7313 8.38443
          1.75617 4.39878 8.39792 2.5975 3.95926 8.39462
          -0.963838 4.90622 10.0033 -0.677851 -4.85952 10.9621
          -0.511015 -4.91738 9.25283 1.32399 -4.72234 10.9729
          3.37856 0.244358 6.32228 0.600023 3.90198 6.93169
          1.4082 3.81371 7.08923 0.361378 -3.92706 6.9263
          2.00921 -3.33946 6.86773 3.14097 -2.38913 6.92976
          3.84295 -0.904862 6.93195 3.91996 0.716251 6.97991
          3.23047 2.24897 6.91679 -1.46182 4.721 9.24153
          -0.968887 4.65042 8.4396 1.15001 4.27189 7.6701
          2.73064 3.44922 7.62377 3.86517 2.1063 7.62851
          4.38623 0.379471 7.62998 4.16976 -1.37446 7.60752
          1.05286 -4.2507 7.58691 2.67053 -3.51618 7.65378
          3.81663 -2.18642 7.62242 0.785859 -4.65873 8.36334
          2.54332 -3.98881 8.38107 3.90121 -2.68105 8.38986
          4.62306 -0.970978 8.36154 4.64264 0.908944 8.38145
          3.9155 2.64936 8.3722 0.846514 4.65563 8.3849
          3.319 3.36959 8.37825 -0.498793 4.90994 9.19771
          -0.506127 4.90842 10.807 -1.05498 -4.88605 10.1162
          0.347901 -4.88561 11.0049 2.26169 -4.36872 10.8939
          3.11831 -3.81985 10.8276 3.81937 -3.12101 10.8196
          4.35712 -2.31262 10.8169 4.72655 -1.41485 10.8111
          4.91301 -0.455556 10.8092 0.454306 4.91252 10.8129
          1.39781 4.73039 10.8182 2.29615 4.36547 10.8188
          3.10393 3.83406 10.8159 3.79549 3.15201 10.8118
          4.3388 2.34755 10.8148 4.71234 1.45754 10.8182
          4.90618 0.516871 10.8138 0.46033 4.91095 9.18104
          1.40379 4.72845 9.18077 2.30456 4.36135 9.18292
          3.80457 3.13802 9.17657 4.3451 2.33125 9.17215
          4.71849 1.43203 9.17227 0.446883 -4.91215 9.18083
          1.38801 -4.7311 9.16929 3.11526 3.82407 9.18046
          2.2847 -4.37005 9.17369 3.09781 -3.83799 9.17935
          3.79484 -3.1513 9.18239 4.33852 -2.34396 9.17354
          4.71138 -1.45149 9.16571 4.90464 -0.502259 9.16796
          4.90803 0.474056 9.17144 3.06162e-16 5 10
          0.975452 4.90393 10 1.91342 4.6194 10
          2.77785 4.15735 10 3.53553 3.53553 10
          4.15735 2.77785 10 4.6194 1.91342 10
          4.90393 0.975452 10 4.90393 -0.975452 10
          5 0 10 4.6194 -1.91342 10
          4.15735 -2.77785 10 3.53553 -3.53553 10
          2.77785 -4.15735 10 1.91342 -4.6194 10
          3.06162e-16 -5 10 0.975452 -4.90393 10
          -1 -2.22045e-16 0 -0.5 -0.866025 0
          0.5 -0.866025 0 1 0 0
          0.5 0.866025 0 -0.5 0.866025 0
          0 0 0 0 0 10
          3.28368 -0.537449 6.2679 3.20788 -1.24495 6.37239
          2.75952 -1.88883 6.28283 2.29613 -2.62073 6.41397
          3.39059 0.989787 6.46104 2.99211 1.60263 6.32865
          2.4825 2.23537 6.27974 1.85084 2.81761 6.30737
          1.16701 3.3478 6.47434 1.39098 -2.85568 6.13862
          0.651887 -3.34178 6.33837 0.231895 3.34075 6.2871
          1.93001 -2.00865 5.84785 2.47798 -1.09198 5.79676
          2.67865 -0.1248 5.7799 2.79602 0.772308 5.92743
          2.27178 1.461 5.79233 1.64904 2.12916 5.78724
          0.914801 2.73933 5.91843 0.982959 -2.10135 5.57076
          0.320881 -2.68471 5.79413 1.5876 -1.26132 5.42959
          1.89359 -0.361071 5.38655 2.08022 0.567015 5.48877
          1.45305 1.30651 5.39764 0.73125 2.00296 5.47745
          -0.0903179 2.64955 5.76069 -0.734807 3.25143 6.2733
          -1.18804 3.81509 6.99439 -1.53445 4.211 7.78348
          -1.81011 4.43294 8.56036 1.23963 0.39969 5.17262
          0.5443 1.13445 5.16091 -0.206672 1.85217 5.3603
          0.983939 -0.500947 5.12343 0.686744 -1.33863 5.23173
          -0.136187 -1.81556 5.34326 0.288612 0.183798 5.01172
          -0.381434 0.891506 5.09493 -0.0164368 -0.770539 5.05976
          -0.719417 -0.0379377 5.05217 -0.982868 -0.993088 5.19919
          -1.13995 2.44873 5.79236 -1.00448 1.55787 5.35629
          -1.37083 0.704513 5.24348 -1.73398 -0.260131 5.31752
          -1.67162 3.14358 6.4895 -2.10368 3.65482 7.31358
          -2.42618 3.98387 8.19932 -1.82539 1.60087 5.62905
          -2.13827 2.38511 6.16086 -2.26584 0.637726 5.58873
          -2.57413 2.987 6.92563 -2.97957 3.36896 7.81546
          -2.65444 1.48118 6.0301 -2.96269 2.21951 6.63901
          -3.39991 2.66014 7.47726 -3.64896 1.92171 7.17296
          -3.38663 1.338 6.57356 -3.09488 0.49524 6.1043
          -2.67403 -0.318726 5.78716 -2.0327 -1.27999 5.61482
          -1.14063 -1.82715 5.48774 -0.688954 -2.61817 5.79637
          -0.248499 -3.35655 6.30246 -0.60289 -3.92784 6.96543
          -0.88501 -4.36411 7.72595 -1.1554 -4.63679 8.52852
          -1.38885 -4.75642 9.33096 -1.23091 -3.23729 6.39378
          -1.73595 -2.37498 5.95699 -1.58812 -3.78681 7.14729
          -1.88578 -4.17048 7.98732 -2.11435 -4.39502 8.89847
          -2.1976 -3.00842 6.66534 -2.63471 -2.06485 6.28588
          -2.9485 -1.14516 6.12766 -2.55809 -3.49804 7.50603
          -2.82275 -3.8242 8.44837 -3.11653 -2.61426 7.09262
          -3.51452 -1.59477 6.82118 -3.60824 -0.460811 6.56951
          -3.74385 0.516906 6.72641 -4.07387 1.1575 7.34222
          -3.45245 -3.03138 8.02735 -3.93438 -2.04652 7.69081
          -4.19586 -0.938367 7.44771 -4.26513 0.133163 7.39407
          -4.12112 1.98401 7.98009 -3.78701 2.83563 8.38204
          -3.18926 3.63626 8.73263 -2.46806 4.26834 9.16935
          -1.8872 4.63013 9.98104 -1.44168 4.7205 10.799
          -4.54894 1.00593 8.18471 -4.69187 -0.149962 8.2784
          -4.56128 -1.31003 8.42566 -4.19256 -2.39277 8.69727
          -3.6259 -3.31093 9.05628 -2.91272 -4.03004 9.47571
          -2.07662 -4.54705 9.89073 -1.76722 -4.60652 10.8105
          -2.76439 -4.1356 10.505 -3.59066 -3.47678 10.1383
          -4.24935 -2.62641 9.78791 -4.71008 -1.59988 9.49451
          -4.928 -0.433538 9.27416 -4.85702 0.798083 9.12112
          -4.46994 1.97981 8.95121 -3.89627 3.04917 9.27775
          -3.27969 3.75988 9.67292 -2.64498 4.24288 10.0457
          -2.30811 4.35726 10.8288 -3.13137 3.83685 10.6879
          -3.80884 3.21885 10.363 -4.31988 2.51616 9.91318
          -4.72725 1.62879 9.98812 -4.97537 0.481409 10.1181
          -4.93863 -0.710467 10.3242 -4.62749 -1.79842 10.5933
          -4.08692 -2.74269 10.8802 -3.35064 -3.52249 11.1684
          -2.43239 -4.11806 11.4578 -1.38772 -4.48794 11.7125
          -0.334513 -4.6129 11.8998 0.694485 -4.54628 11.9619
          1.654 -4.35097 11.8257 2.60083 -3.94172 11.6427
          3.3515 -3.33591 11.6245 3.94544 -2.60718 11.6236
          4.3849 -1.78949 11.6032 4.66016 -0.880402 11.5836
          4.73736 0.06176 11.598 4.62852 0.972917 11.6218
          4.35873 1.84835 11.6078 3.91401 2.67163 11.5947
          3.30745 3.39016 11.6024 2.58743 3.96178 11.6154
          1.75592 4.39365 11.6164 0.858214 4.65269 11.6174
          -0.0542144 4.73587 11.6027 -0.988479 4.63718 11.5873
          -1.88994 4.34178 11.6053 -2.74937 3.87194 11.5649
          -3.56081 3.2391 11.3523 -4.2734 2.40697 10.9719
          -4.72362 1.34097 10.943 -4.87642 0.174849 11.0909
          -4.72257 -0.898946 11.3745 -4.32622 -1.88633 11.6509
          -3.72919 -2.73901 11.895 -2.96583 -3.44373 12.0844
          -2.02081 -3.932 12.3357 -1.03486 -4.1356 12.6126
          0.0132008 -4.15858 12.776 1.05357 -3.99097 12.8217
          2.01357 -3.897 12.3998 2.76167 -3.40909 12.3982
          3.39791 -2.77209 12.402 3.88259 -2.04697 12.3949
          4.24373 -1.26091 12.324 4.41055 -0.371568 12.3257
          4.35834 0.473038 12.4044 4.18685 1.30471 12.4017
          3.88882 2.11181 12.3275 3.38238 2.85548 12.325
          2.74608 3.42405 12.3948 2.04403 3.89887 12.3708
          1.21073 4.22908 12.3768 0.372914 4.36486 12.4102
          -0.494535 4.39451 12.3332 -1.39725 4.19793 12.3292
          -2.21852 3.79921 12.3758 -3.02152 3.26886 12.2771
          -3.75459 2.59336 12.0439 -4.27748 1.79253 11.8681
          -4.59689 0.883904 11.7571 -4.54839 -0.0325012 12.0763
          -4.29695 -0.987983 12.358 -3.83415 -1.87486 12.6047
          -3.20289 -2.63882 12.7889 -2.5032 -3.26003 12.8471
          -1.69 -3.47158 13.1768 -0.708288 -3.59952 13.3973
          0.272054 -3.52135 13.5392 -2.40907 -2.61514 13.5153
          -1.37659 -2.91334 13.8233 -0.411238 -2.89389 14.0566
          -3.17101 -1.83884 13.4005 -3.71467 -0.985748 13.1984
          -4.05092 -0.0567935 12.9303 -4.19593 0.91381 12.5611
          -3.7529 1.80471 12.7674 -3.13474 2.55133 12.9435
          -2.35695 3.14191 13.0941 -1.56614 3.59612 13.1008
          -0.851992 3.94659 12.9493 -0.0587509 3.90469 13.1225
          0.775257 3.78008 13.1796 1.51715 3.67579 13.031
          2.14185 3.23438 13.1546 2.80215 2.76101 13.0862
          3.3626 2.26751 12.9243 3.61395 1.53417 13.0961
          3.79576 0.735362 13.1704 3.90333 -0.0514472 13.1243
          3.95893 -0.780693 12.9525 3.62991 -1.46115 13.1127
          3.22138 -2.16771 13.1502 2.70671 -2.85428 13.0865
          1.93042 -3.45613 13.0543 1.15141 -3.2569 13.6148
          0.531284 -2.7011 14.1739 1.96387 -2.86076 13.5999
          1.47485 -2.40357 14.1289 2.43849 -2.20651 13.7663
          2.87639 -1.44733 13.8251 3.32864 -0.714137 13.662
          3.19923 0.110141 13.8409 3.10733 1.02369 13.7811
          2.92657 1.92028 13.5704 2.20227 2.46434 13.7519
          1.34041 3.02078 13.7521 1.97515 -1.56118 14.3199
          2.44667 -0.611275 14.3174 2.45443 0.45425 14.3324
          2.36621 1.48887 14.1454 0.296642 3.24244 13.7945
          -0.674393 3.38061 13.6217 -1.50986 2.93117 13.7588
          -2.37633 2.40839 13.6814 -3.10201 1.724 13.5221
          -3.64493 0.881414 13.3072 -3.43068 -0.0516772 13.637
          -3.03364 -0.929205 13.8644 -2.47598 -1.68423 14.0041
          -1.82104 -2.21711 14.0949 -0.98283 -2.18061 14.3908
          -0.0675046 -2.03737 14.5656 0.921305 -1.80795 14.5697
          1.38485 -0.934824 14.7126 -0.502245 2.65546 14.2067
          0.666543 2.52699 14.2626 1.57188 2.07841 14.2672
          1.69236 1.03183 14.5903 1.64758 -0.00690995 14.7207
          0.906125 1.58611 14.6544 0.894589 0.621238 14.8799
          0.0824205 2.00289 14.5806 0.0707067 1.18591 14.8568
          0.641616 -0.312196 14.9488 0.267132 -1.13618 14.8619
          0.0334832 0.336136 14.9886 -0.492613 -0.3591 14.9627
          -0.703472 -1.31519 14.7724 -1.61748 -1.47605 14.495
          -2.25877 -0.863131 14.3764 -2.73374 -0.0536657 14.1861
          -2.96782 0.839314 13.9354 -2.32454 1.5901 14.1314
          -1.49814 2.17781 14.2441 -0.739711 1.73595 14.6303
          -1.37154 -0.653976 14.7635 -2.01238 -0.10209 14.576
          -2.20213 0.714871 14.4317 -1.52214 1.26583 14.5914
          -0.732798 0.762247 14.8869 -1.35936 0.285597 14.8032
        </DataArray>
      </Points>
      <Cells>
        <DataArray type="Int32" Name="connectivity" format="ascii">
          116 117 120 120 117 118
          120 118 119 120 119 114
          114 115 120 120 115 116
          104 106 96 96 106 95
          95 106 105 95 105 94
          94 105 107 94 107 93
          93 107 108 93 108 92
          92 108 109 92 109 91
          91 109 110 91 110 90
          90 110 111 90 111 88
          88 111 113 88 113 87
          87 113 112 103 104 86
          86 104 96 102 103 85
          85 103 86 101 102 84
          84 102 85 100 101 89
          89 101 84 99 100 83
          83 100 89 98 99 82
          82 99 83 97 98 81
          81 98 82 106 104 80
          80 104 79 79 104 103
          79 103 78 78 103 102
          78 102 77 77 102 101
          77 101 76 76 101 100
          76 100 75 75 100 99
          75 99 74 74 99 98
          74 98 73 73 98 97
          105 106 72 72 106 80
          107 105 71 71 105 72
          108 107 70 70 107 71
          109 108 69 69 108 70
          110 109 68 68 109 69
          111 110 67 67 110 68
          113 111 35 35 111 67
          112 113 66 66 113 35
          87 112 34 34 112 65
          65 112 33 33 112 66
          73 97 64 64 97 32
          32 97 63 63 97 81
          83 89 31 31 89 62
          62 89 84 82 83 30
          30 83 31 81 82 61
          61 82 30 63 81 29
          29 81 61 62 84 60
          60 84 85 60 85 28
          28 85 86 28 86 59
          59 86 96 59 96 27
          27 96 95 27 95 58
          58 95 94 58 94 26
          26 94 93 26 93 57
          57 93 92 57 92 25
          25 92 91 25 91 56
          56 91 90 56 90 24
          24 90 88 24 88 55
          55 88 87 55 87 23
          23 87 34 26 57 54
          54 57 22 22 57 25
          22 25 53 53 25 56
          53 56 21 21 56 24
          21 24 52 52 24 55
          52 55 20 20 55 23
          58 26 51 51 26 54
          27 58 19 19 58 51
          59 27 50 50 27 19
          28 59 18 18 59 50
          60 28 49 49 28 18
          62 60 17 17 60 49
          31 62 48 48 62 17
          30 31 16 16 31 48
          61 30 47 47 30 16
          29 61 15 15 61 47
          63 29 46 46 29 14
          14 29 15 32 63 45
          45 63 46 48 17 13
          13 17 44 44 17 49
          44 49 12 12 49 18
          12 18 43 43 18 50
          43 50 11 11 50 19
          11 19 42 42 19 51
          42 51 10 10 51 54
          10 54 41 41 54 22
          41 22 9 9 22 53
          9 53 40 40 53 21
          40 21 8 8 21 52
          8 52 39 39 52 20
          16 48 7 7 48 13
          47 16 38 38 16 7
          15 47 37 37 47 38
          14 15 6 6 15 37
          43 11 36 36 11 122
          122 11 42 122 42 123
          123 42 10 123 10 124
          124 10 41 124 41 125
          125 41 9 125 9 40
          12 43 126 126 43 36
          44 12 127 127 12 126
          13 44 128 128 44 127
          7 13 129 129 13 128
          38 7 130 130 7 129
          37 38 130 125 40 131
          131 40 8 131 8 132
          132 8 39 6 37 133
          133 37 130 124 125 134
          134 125 131 123 124 135
          135 124 134 122 123 135
          36 122 136 136 122 135
          126 36 137 137 36 136
          127 137 138 127 126 137
          128 127 138 129 128 139
          139 128 138 130 129 140
          140 129 139 133 130 140
          134 131 141 141 131 142
          142 131 132 135 134 143
          143 134 141 136 135 144
          144 135 143 137 136 145
          145 136 144 138 137 145
          139 138 146 146 138 145
          140 139 147 147 139 146
          133 140 148 148 140 147
          6 133 149 149 133 148
          14 6 150 150 6 149
          46 14 151 151 14 150
          45 46 152 152 46 151
          146 145 153 153 145 144
          147 146 154 154 146 153
          148 147 155 155 147 154
          153 144 156 156 144 143
          156 143 157 157 143 141
          157 141 158 158 141 142
          154 153 159 159 153 156
          155 154 160 160 154 159
          159 156 161 161 156 157
          161 157 158 160 159 162
          162 159 161 162 161 163
          163 161 158 149 148 164
          164 148 155 164 155 165
          165 155 160 165 160 166
          166 160 162 166 162 167
          167 162 163 150 149 168
          168 149 164 151 150 169
          169 150 168 152 151 170
          170 151 169 164 165 171
          171 165 166 168 164 172
          172 164 171 171 166 173
          173 166 167 169 168 174
          174 168 172 170 169 175
          175 169 174 172 171 176
          176 171 173 174 172 177
          177 172 176 175 174 178
          178 174 177 178 177 179
          179 177 180 180 177 176
          180 176 181 181 176 173
          181 173 182 182 173 167
          182 167 183 183 167 163
          183 163 184 184 163 158
          184 158 185 185 158 142
          185 142 186 186 142 132
          186 132 39 186 39 187
          187 39 20 187 20 188
          188 20 23 188 23 189
          189 23 34 189 34 190
          190 34 65 185 186 191
          191 186 187 184 185 192
          192 185 191 183 184 192
          191 187 193 193 187 188
          193 188 194 194 188 189
          194 189 195 195 189 190
          192 191 196 196 191 193
          183 192 197 197 192 196
          182 183 198 198 183 197
          196 193 199 199 193 194
          199 194 200 200 194 195
          197 196 201 201 196 199
          198 197 202 202 197 201
          182 198 203 203 198 202
          181 182 203 180 181 204
          204 181 203 179 180 205
          205 180 204 201 199 206
          206 199 200 202 201 207
          207 201 206 203 202 208
          208 202 207 204 203 209
          209 203 208 205 204 209
          178 179 210 210 179 205
          175 178 211 211 178 210
          170 175 212 212 175 211
          152 170 213 213 170 212
          45 152 213 32 45 214
          214 45 213 64 32 215
          215 32 214 210 205 216
          216 205 209 216 209 217
          217 209 208 217 208 218
          218 208 207 218 207 219
          219 207 206 219 206 220
          220 206 200 220 200 221
          221 200 195 221 195 222
          222 195 190 222 190 65
          222 65 223 223 65 33
          221 222 224 224 222 223
          220 221 225 225 221 224
          219 220 226 226 220 225
          218 219 227 227 219 226
          217 218 228 228 218 227
          216 217 229 229 217 228
          210 216 230 230 216 229
          211 210 230 212 211 231
          231 211 230 213 212 232
          232 212 231 214 213 233
          233 213 232 215 214 234
          234 214 233 234 233 235
          235 233 232 235 232 236
          236 232 231 236 231 237
          237 231 230 237 230 238
          238 230 229 238 229 239
          239 229 228 239 228 240
          240 228 227 240 227 241
          241 227 226 241 226 242
          242 226 225 242 225 243
          243 225 224 243 224 244
          244 224 223 244 223 245
          245 223 33 245 33 246
          246 33 66 246 66 247
          247 66 35 247 35 248
          248 35 67 248 67 249
          249 67 68 249 68 250
          250 68 69 250 69 251
          251 69 70 251 70 252
          252 70 71 252 71 253
          253 71 72 253 72 254
          254 72 80 254 80 255
          255 80 79 255 79 256
          256 79 78 256 78 257
          257 78 77 257 77 258
          258 77 76 258 76 259
          259 76 75 259 75 260
          260 75 74 260 74 261
          261 74 73 261 73 262
          262 73 64 262 64 263
          263 64 215 263 215 264
          264 215 234 264 234 265
          265 234 235 265 235 266
          266 235 236 266 236 267
          267 236 237 267 237 238
          267 238 268 268 238 239
          268 239 269 269 239 240
          269 240 270 270 240 241
          270 241 271 271 241 242
          271 242 272 272 242 243
          272 243 273 273 243 244
          273 244 274 274 244 245
          274 245 275 275 245 246
          275 246 276 276 246 247
          276 247 277 277 247 248
          277 248 278 278 248 249
          278 249 279 279 249 250
          279 250 280 280 250 251
          280 251 281 281 251 252
          281 252 282 282 252 253
          282 253 283 283 253 254
          283 254 284 284 254 255
          284 255 285 285 255 256
          285 256 286 286 256 257
          286 257 287 287 257 258
          287 258 288 288 258 259
          288 259 289 289 259 260
          289 260 290 290 260 261
          290 261 291 291 261 262
          291 262 292 292 262 263
          292 263 293 293 263 264
          293 264 294 294 264 265
          294 265 295 295 265 266
          295 266 296 296 266 267
          296 267 297 297 267 268
          297 268 298 298 268 269
          298 269 299 299 269 270
          299 270 300 300 270 271
          300 271 301 301 271 272
          301 272 302 302 272 273
          302 273 303 303 273 274
          303 274 304 304 274 275
          304 275 305 305 275 276
          305 276 306 306 276 277
          302 303 307 307 303 304
          307 304 308 308 304 305
          308 305 309 309 305 306
          301 302 310 310 302 307
          300 301 311 311 301 310
          299 300 312 312 300 311
          298 299 313 313 299 312
          297 313 314 297 298 313
          296 297 314 295 296 315
          315 296 314 294 295 316
          316 295 315 293 294 317
          317 294 316 292 293 318
          318 293 317 291 292 319
          319 292 318 290 291 320
          320 291 319 289 290 321
          321 290 320 288 289 322
          322 289 321 287 288 323
          323 288 322 286 287 324
          324 287 323 285 286 325
          325 286 324 284 285 326
          326 285 325 283 284 327
          327 284 326 282 283 328
          328 283 327 281 282 329
          329 282 328 280 281 330
          330 281 329 279 280 331
          331 280 330 278 279 332
          277 278 332 332 279 331
          306 277 333 333 277 332
          309 306 334 334 306 333
          333 332 335 335 332 331
          334 333 336 336 333 335
          335 331 337 337 331 330
          337 330 338 338 330 329
          338 329 339 339 329 328
          339 328 327 339 327 340
          340 327 326 340 326 341
          341 326 325 341 325 342
          342 325 324 342 324 323
          342 323 343 343 323 322
          343 322 344 344 322 321
          344 321 320 336 337 345
          336 335 337 345 337 338
          345 338 346 346 338 339
          346 339 340 346 340 347
          347 340 341 347 341 348
          348 341 342 348 342 343
          344 320 349 349 320 319
          349 319 350 350 319 318
          350 318 317 350 317 351
          351 317 316 351 316 352
          352 316 315 352 315 353
          353 315 314 353 314 354
          354 314 313 354 313 312
          354 312 355 355 312 311
          355 311 356 356 311 310
          356 310 357 357 310 307
          357 307 358 358 307 308
          358 308 359 359 308 309
          359 309 360 360 309 334
          360 334 361 361 334 336
          361 336 345 361 345 362
          362 345 346 362 346 367
          349 350 363 363 350 351
          344 349 364 364 349 363
          343 344 365 348 343 365
          365 344 364 347 348 366
          366 348 365 346 347 367
          367 347 366 366 365 368
          368 365 364 367 366 369
          369 366 368 368 364 370
          370 364 363 369 368 371
          371 368 370 362 367 372
          372 367 369 373 362 372
          372 369 374 374 369 371
          373 372 375 375 372 374
          359 360 376 376 360 373
          376 373 375 358 359 377
          377 359 376 357 358 377
          356 357 378 378 357 377
          355 356 379 379 356 378
          354 355 380 380 355 379
          353 354 380 352 353 381
          381 353 380 351 352 382
          382 352 381 363 351 382
          370 363 383 383 363 382
          371 370 383 378 377 384
          384 377 376 384 376 375
          379 378 385 385 378 384
          380 379 386 386 379 385
          381 380 386 382 381 387
          387 381 386 383 382 387
          387 386 389 389 386 385
          383 387 388 371 383 388
          374 371 388 375 374 388
          375 389 384 384 389 385
          362 373 361 360 361 373
          387 389 388 375 388 389
        </DataArray>
        <DataArray type="Int32" Name="offsets" format="ascii">
          3 6 9 12 15 18
          21 24 27 30 33 36
          39 42 45 48 51 54