VARIABLES = "x (m)" "y (m)" phi
ZONE I=51 J=21 
0.00000 0.00000 4.33289
0.0100000 0.00000 4.04053
0.0200000 0.00000 3.85331
0.0300000 0.00000 3.67110
0.0400000 0.00000 3.49368
0.0500000 0.00000 3.32071
0.0600000 0.00000 3.15177
0.0700000 0.00000 2.98632
0.0800000 0.00000 2.82365
0.0900000 0.00000 2.66291
0.100000 0.00000 2.50296
0.110000 0.00000 2.34235
0.120000 0.00000 2.17916
0.130000 0.00000 2.01073
0.140000 0.00000 1.83323
0.150000 0.00000 1.64089
0.160000 0.00000 1.42458
0.170000 0.00000 0.500000
0.180000 0.00000 0.500000
0.190000 0.00000 0.500000
0.200000 0.00000 0.500000
0.210000 0.00000 0.500000
0.220000 0.00000 0.500000
0.230000 0.00000 0.500000
0.240000 0.00000 0.500000
0.250000 0.00000 0.500000
0.260000 0.00000 0.500000
0.270000 0.00000 0.500000
0.280000 0.00000 0.500000
0.290000 0.00000 0.500000
0.300000 0.00000 0.500000
0.310000 0.00000 0.500000
0.320000 0.00000 0.500000
0.330000 0.00000 0.500000
0.340000 0.00000 0.735734
0.350000 0.00000 0.763596
0.360000 0.00000 0.781026
0.370000 0.00000 0.791389
0.380000 0.00000 0.796875
0.390000 0.00000 0.798977
0.400000 0.00000 0.798758
0.410000 0.00000 0.797005
0.420000 0.00000 0.794315
0.430000 0.00000 0.791149
0.440000 0.00000 0.787869
0.450000 0.00000 0.784757
0.460000 0.00000 0.782030
0.470000 0.00000 0.779855
0.480000 0.00000 0.778346
0.490000 0.00000 0.777575
0.500000 0.00000 0.777575
0.00000 0.0200000 4.24053
0.0100000 0.0200000 4.04815
0.0200000 0.0200000 3.86090
0.0300000 0.0200000 3.67862
0.0400000 0.0200000 3.50110
0.0500000 0.0200000 3.32801
0.0600000 0.0200000 3.15891
0.0700000 0.0200000 2.99328
0.0800000 0.0200000 2.83040
0.0900000 0.0200000 2.66940
0.100000 0.0200000 2.50917
0.110000 0.0200000 2.34824
0.120000 0.0200000 2.18468
0.130000 0.0200000 2.01582
0.140000 0.0200000 1.83782
0.150000 0.0200000 1.64491
0.160000 0.0200000 1.42791
0.170000 0.0200000 1.17144
0.180000 0.0200000 1.01627
0.190000 0.0200000 0.916917
0.200000 0.0200000 0.849773
0.210000 0.0200000 0.802113
0.220000 0.0200000 0.766825
0.230000 0.0200000 0.739779
0.240000 0.0200000 0.718497
0.250000 0.0200000 0.701455
0.260000 0.0200000 0.687720
0.270000 0.0200000 0.676763
0.280000 0.0200000 0.668379
0.290000 0.0200000 0.662700
0.300000 0.0200000 0.660305
0.310000 0.0200000 0.662491
0.320000 0.0200000 0.671862
0.330000 0.0200000 0.693551
0.340000 0.0200000 0.737796
0.350000 0.0200000 0.766027
0.360000 0.0200000 0.783745
0.370000 0.0200000 0.794342
0.380000 0.0200000 0.800019
0.390000 0.0200000 0.802278
0.400000 0.0200000 0.802191
0.410000 0.0200000 0.800549
0.420000 0.0200000 0.797951
0.430000 0.0200000 0.794861
0.440000 0.0200000 0.791644
0.450000 0.0200000 0.788582
0.460000 0.0200000 0.785895
0.470000 0.0200000 0.783748
0.480000 0.0200000 0.782257
0.490000 0.0200000 0.781497
0.500000 0.0200000 0.781497
0.00000 0.0400000 4.26564
0.0100000 0.0400000 4.07331
0.0200000 0.0400000 3.88627
0.0300000 0.0400000 3.70439
0.0400000 0.0400000 3.52747
0.0500000 0.0400000 3.35522
0.0600000 0.0400000 3.18729
0.0700000 0.0400000 3.02320
0.0800000 0.0400000 2.86242
0.0900000 0.0400000 2.70428
0.100000 0.0400000 2.54800
0.110000 0.0400000 2.39271
0.120000 0.0400000 2.23741
0.130000 0.0400000 2.08113
0.140000 0.0400000 1.92306
0.150000 0.0400000 1.76306
0.160000 0.0400000 1.60292
0.170000 0.0400000 1.44903
0.180000 0.0400000 1.31883
0.190000 0.0400000 1.21345
0.200000 0.0400000 1.12920
0.210000 0.0400000 1.06171
0.220000 0.0400000 1.00719
0.230000 0.0400000 0.962670
0.240000 0.0400000 0.925954
0.250000 0.0400000 0.895440
0.260000 0.0400000 0.870007
0.270000 0.0400000 0.848910
0.280000 0.0400000 0.831721
0.290000 0.0400000 0.818292
0.300000 0.0400000 0.808741
0.310000 0.0400000 0.803435
0.320000 0.0400000 0.802888
0.330000 0.0400000 0.807428
0.340000 0.0400000 0.816165
0.350000 0.0400000 0.824129
0.360000 0.0400000 0.829706
0.370000 0.0400000 0.832666
0.380000 0.0400000 0.833308
0.390000 0.0400000 0.832104
0.400000 0.0400000 0.829542
0.410000 0.0400000 0.826075
0.420000 0.0400000 0.822100
0.430000 0.0400000 0.817955
0.440000 0.0400000 0.813924
0.450000 0.0400000 0.810237
0.460000 0.0400000 0.807081
0.470000 0.0400000 0.804597
0.480000 0.0400000 0.802890
0.490000 0.0400000 0.802022
0.500000 0.0400000 0.802022
0.00000 0.0600000 4.30782
0.0100000 0.0600000 4.11558
0.0200000 0.0600000 3.92897
0.0300000 0.0600000 3.74786
0.0400000 0.0600000 3.57210
0.0500000 0.0600000 3.40146
0.0600000 0.0600000 3.23566
0.0700000 0.0600000 3.07436
0.0800000 0.0600000 2.91717
0.0900000 0.0600000 2.76368
0.100000 0.0600000 2.61347
0.110000 0.0600000 2.46610
0.120000 0.0600000 2.32128
0.130000 0.0600000 2.17885
0.140000 0.0600000 2.03905
0.150000 0.0600000 1.90271
0.160000 0.0600000 1.77158
0.170000 0.0600000 1.64856
0.180000 0.0600000 1.53729
0.190000 0.0600000 1.43929
0.200000 0.0600000 1.35439
0.210000 0.0600000 1.28141
0.220000 0.0600000 1.21885
0.230000 0.0600000 1.16518
0.240000 0.0600000 1.11904
0.250000 0.0600000 1.07927
0.260000 0.0600000 1.04495
0.270000 0.0600000 1.01539
0.280000 0.0600000 0.990062
0.290000 0.0600000 0.968620
0.300000 0.0600000 0.950839
0.310000 0.0600000 0.936553
0.320000 0.0600000 0.925568
0.330000 0.0600000 0.917501
0.340000 0.0600000 0.911596
0.350000 0.0600000 0.906667
0.360000 0.0600000 0.901858
0.370000 0.0600000 0.896716
0.380000 0.0600000 0.891090
0.390000 0.0600000 0.885021
0.400000 0.0600000 0.878654
0.410000 0.0600000 0.872185
0.420000 0.0600000 0.865827
0.430000 0.0600000 0.859784
0.440000 0.0600000 0.854245
0.450000 0.0600000 0.849378
0.460000 0.0600000 0.845321
0.470000 0.0600000 0.842185
0.480000 0.0600000 0.840052
0.490000 0.0600000 0.838974
0.500000 0.0600000 0.838974
0.00000 0.0800000 4.36625
0.0100000 0.0800000 4.17414
0.0200000 0.0800000 3.98810
0.0300000 0.0800000 3.80803
0.0400000 0.0800000 3.63380
0.0500000 0.0800000 3.46523
0.0600000 0.0800000 3.30211
0.0700000 0.0800000 3.14420
0.0800000 0.0800000 2.99125
0.0900000 0.0800000 2.84298
0.100000 0.0800000 2.69918
0.110000 0.0800000 2.55965
0.120000 0.0800000 2.42431
0.130000 0.0800000 2.29323
0.140000 0.0800000 2.16672
0.150000 0.0800000 2.04535
0.160000 0.0800000 1.93000
0.170000 0.0800000 1.82182
0.180000 0.0800000 1.72190
0.190000 0.0800000 1.63091
0.200000 0.0800000 1.54894
0.210000 0.0800000 1.47566
0.220000 0.0800000 1.41043
0.230000 0.0800000 1.35249
0.240000 0.0800000 1.30104
0.250000 0.0800000 1.25534
0.260000 0.0800000 1.21472
0.270000 0.0800000 1.17861
0.280000 0.0800000 1.14653
0.290000 0.0800000 1.11808
0.300000 0.0800000 1.09294
0.310000 0.0800000 1.07081
0.320000 0.0800000 1.05136
0.330000 0.0800000 1.03425
0.340000 0.0800000 1.01903
0.350000 0.0800000 1.00522
0.360000 0.0800000 0.992397
0.370000 0.0800000 0.980279
0.380000 0.0800000 0.968701
0.390000 0.0800000 0.957611
0.400000 0.0800000 0.947036
0.410000 0.0800000 0.937054
0.420000 0.0800000 0.927773
0.430000 0.0800000 0.919316
0.440000 0.0800000 0.911806
0.450000 0.0800000 0.905358
0.460000 0.0800000 0.900075
0.470000 0.0800000 0.896039
0.480000 0.0800000 0.893316
0.490000 0.0800000 0.891945
0.500000 0.0800000 0.891945
0.00000 0.100000 4.43986
0.0100000 0.100000 4.24792
0.0200000 0.100000 4.06254
0.0300000 0.100000 3.88366
0.0400000 0.100000 3.71115
0.0500000 0.100000 3.54488
0.0600000 0.100000 3.38468
0.0700000 0.100000 3.23036
0.0800000 0.100000 3.08173
0.0900000 0.100000 2.93859
0.100000 0.100000 2.80080
0.110000 0.100000 2.66821
0.120000 0.100000 2.54078
0.130000 0.100000 2.41854
0.140000 0.100000 2.30163
0.150000 0.100000 2.19029
0.160000 0.100000 2.08490
0.170000 0.100000 1.98584
0.180000 0.100000 1.89346
0.190000 0.100000 1.80796
0.200000 0.100000 1.72935
0.210000 0.100000 1.65743
0.220000 0.100000 1.59185
0.230000 0.100000 1.53217
0.240000 0.100000 1.47789
0.250000 0.100000 1.42851
0.260000 0.100000 1.38356
0.270000 0.100000 1.34258
0.280000 0.100000 1.30520
0.290000 0.100000 1.27104
0.300000 0.100000 1.23982
0.310000 0.100000 1.21123
0.320000 0.100000 1.18502
0.330000 0.100000 1.16090
0.340000 0.100000 1.13863
0.350000 0.100000 1.11794
0.360000 0.100000 1.09863
0.370000 0.100000 1.08052
0.380000 0.100000 1.06354
0.390000 0.100000 1.04763
0.400000 0.100000 1.03281
0.410000 0.100000 1.01913
0.420000 0.100000 1.00666
0.430000 0.100000 0.995484
0.440000 0.100000 0.985698
0.450000 0.100000 0.977389
0.460000 0.100000 0.970639
0.470000 0.100000 0.965516
0.480000 0.100000 0.962073
0.490000 0.100000 0.960343
0.500000 0.100000 0.960343
0.00000 0.120000 4.52747
0.0100000 0.120000 4.33570
0.0200000 0.120000 4.15105
0.0300000 0.120000 3.97343
0.0400000 0.120000 3.80275
0.0500000 0.120000 3.63888
0.0600000 0.120000 3.48167
0.0700000 0.120000 3.33095
0.0800000 0.120000 3.18654
0.0900000 0.120000 3.04826
0.100000 0.120000 2.91596
0.110000 0.120000 2.78947
0.120000 0.120000 2.66870
0.130000 0.120000 2.55358
0.140000 0.120000 2.44407
0.150000 0.120000 2.34019
0.160000 0.120000 2.24200
0.170000 0.120000 2.14954
0.180000 0.120000 2.06284
0.190000 0.120000 1.98185
0.200000 0.120000 1.90646
0.210000 0.120000 1.83647
0.220000 0.120000 1.77159
0.230000 0.120000 1.71150
0.240000 0.120000 1.65584
0.250000 0.120000 1.60424
0.260000 0.120000 1.55633
0.270000 0.120000 1.51177
0.280000 0.120000 1.47026
0.290000 0.120000 1.43152
0.300000 0.120000 1.39528
0.310000 0.120000 1.36134
0.320000 0.120000 1.32949
0.330000 0.120000 1.29957
0.340000 0.120000 1.27141
0.350000 0.120000 1.24489
0.360000 0.120000 1.21992
0.370000 0.120000 1.19643
0.380000 0.120000 1.17440
0.390000 0.120000 1.15384
0.400000 0.120000 1.13478
0.410000 0.120000 1.11729
0.420000 0.120000 1.10144
0.430000 0.120000 1.08732
0.440000 0.120000 1.07502
0.450000 0.120000 1.06462
0.460000 0.120000 1.05621
0.470000 0.120000 1.04984
0.480000 0.120000 1.04556
0.490000 0.120000 1.04342
0.500000 0.120000 1.04342
0.00000 0.140000 4.62783
0.0100000 0.140000 4.43624
0.0200000 0.140000 4.25234
0.0300000 0.140000 4.07605
0.0400000 0.140000 3.90727
0.0500000 0.140000 3.74587
0.0600000 0.140000 3.59169
0.0700000 0.140000 3.44457
0.0800000 0.140000 3.30430
0.0900000 0.140000 3.17069
0.100000 0.140000 3.04354
0.110000 0.140000 2.92264
0.120000 0.140000 2.80780
0.130000 0.140000 2.69885
0.140000 0.140000 2.59562
0.150000 0.140000 2.49796
0.160000 0.140000 2.40573
0.170000 0.140000 2.31877
0.180000 0.140000 2.23693
0.190000 0.140000 2.16002
0.200000 0.140000 2.08781
0.210000 0.140000 2.02006
0.220000 0.140000 1.95648
0.230000 0.140000 1.89677
0.240000 0.140000 1.84062
0.250000 0.140000 1.78773
0.260000 0.140000 1.73780
0.270000 0.140000 1.69056
0.280000 0.140000 1.64577
0.290000 0.140000 1.60321
0.300000 0.140000 1.56271
0.310000 0.140000 1.52411
0.320000 0.140000 1.48729
0.330000 0.140000 1.45217
0.340000 0.140000 1.41869
0.350000 0.140000 1.38681
0.360000 0.140000 1.35653
0.370000 0.140000 1.32787
0.380000 0.140000 1.30088
0.390000 0.140000 1.27564
0.400000 0.140000 1.25222
0.410000 0.140000 1.23072
0.420000 0.140000 1.21127
0.430000 0.140000 1.19395
0.440000 0.140000 1.17888
0.450000 0.140000 1.16616
0.460000 0.140000 1.15587
0.470000 0.140000 1.14809
0.480000 0.140000 1.14287
0.490000 0.140000 1.14026
0.500000 0.140000 1.14026
0.00000 0.160000 4.73957
0.0100000 0.160000 4.54817
0.0200000 0.160000 4.36505
0.0300000 0.160000 4.19015
0.0400000 0.160000 4.02336
0.0500000 0.160000 3.86453
0.0600000 0.160000 3.71350
0.0700000 0.160000 3.57007
0.0800000 0.160000 3.43402
0.0900000 0.160000 3.30509
0.100000 0.160000 3.18304
0.110000 0.160000 3.06759
0.120000 0.160000 2.95846
0.130000 0.160000 2.85538
0.140000 0.160000 2.75806
0.150000 0.160000 2.66622
0.160000 0.160000 2.57957
0.170000 0.160000 2.49782
0.180000 0.160000 2.42068
0.190000 0.160000 2.34784
0.200000 0.160000 2.27900
0.210000 0.160000 2.21384
0.220000 0.160000 2.15204
0.230000 0.160000 2.09329
0.240000 0.160000 2.03729
0.250000 0.160000 1.98375
0.260000 0.160000 1.93243
0.270000 0.160000 1.88310
0.280000 0.160000 1.83555
0.290000 0.160000 1.78965
0.300000 0.160000 1.74526
0.310000 0.160000 1.70232
0.320000 0.160000 1.66078
0.330000 0.160000 1.62064
0.340000 0.160000 1.58193
0.350000 0.160000 1.54470
0.360000 0.160000 1.50905
0.370000 0.160000 1.47509
0.380000 0.160000 1.44293
0.390000 0.160000 1.41272
0.400000 0.160000 1.38462
0.410000 0.160000 1.35878
0.420000 0.160000 1.33535
0.430000 0.160000 1.31448
0.440000 0.160000 1.29631
0.450000 0.160000 1.28097
0.460000 0.160000 1.26856
0.470000 0.160000 1.25917
0.480000 0.160000 1.25288
0.490000 0.160000 1.24972
0.500000 0.160000 1.24972
0.00000 0.180000 4.86117
0.0100000 0.180000 4.66993
0.0200000 0.180000 4.48764
0.0300000 0.180000 4.31422
0.0400000 0.180000 4.14956
0.0500000 0.180000 3.99350
0.0600000 0.180000 3.84584
0.0700000 0.180000 3.70635
0.0800000 0.180000 3.57476
0.0900000 0.180000 3.45078
0.100000 0.180000 3.33409
0.110000 0.180000 3.22433
0.120000 0.180000 3.12115
0.130000 0.180000 3.02415
0.140000 0.180000 2.93295
0.150000 0.180000 2.84714
0.160000 0.180000 2.76631
0.170000 0.180000 2.69004
0.180000 0.180000 2.61792
0.190000 0.180000 2.54955
0.200000 0.180000 2.48452
0.210000 0.180000 2.42245
0.220000 0.180000 2.36296
0.230000 0.180000 2.30571
0.240000 0.180000 2.25039
0.250000 0.180000 2.19671
0.260000 0.180000 2.14442
0.270000 0.180000 2.09333
0.280000 0.180000 2.04329
0.290000 0.180000 1.99420
0.300000 0.180000 1.94599
0.310000 0.180000 1.89867
0.320000 0.180000 1.85227
0.330000 0.180000 1.80689
0.340000 0.180000 1.76265
0.350000 0.180000 1.71970
0.360000 0.180000 1.67823
0.370000 0.180000 1.63845
0.380000 0.180000 1.60058
0.390000 0.180000 1.56486
0.400000 0.180000 1.53150
0.410000 0.180000 1.50074
0.420000 0.180000 1.47280
0.430000 0.180000 1.44787
0.440000 0.180000 1.42615
0.450000 0.180000 1.40780
0.460000 0.180000 1.39294
0.470000 0.180000 1.38170
0.480000 0.180000 1.37416
0.490000 0.180000 1.37038
0.500000 0.180000 1.37038
0.00000 0.200000 4.99076
0.0100000 0.200000 4.79966
0.0200000 0.200000 4.61825
0.0300000 0.200000 4.44646
0.0400000 0.200000 4.28415
0.0500000 0.200000 4.13114
0.0600000 0.200000 3.98720
0.0700000 0.200000 3.85207
0.0800000 0.200000 3.72543
0.0900000 0.200000 3.60693
0.100000 0.200000 3.49617
0.110000 0.200000 3.39273
0.120000 0.200000 3.29613
0.130000 0.200000 3.20590
0.140000 0.200000 3.12152
0.150000 0.200000 3.04245
0.160000 0.200000 2.96817
0.170000 0.200000 2.89814
0.180000 0.200000 2.83180
0.190000 0.200000 2.76865
0.200000 0.200000 2.70818
0.210000 0.200000 2.64992
0.220000 0.200000 2.59341
0.230000 0.200000 2.53828
0.240000 0.200000 2.48415
0.250000 0.200000 2.43074
0.260000 0.200000 2.37779
0.270000 0.200000 2.32513
0.280000 0.200000 2.27264
0.290000 0.200000 2.22025
0.300000 0.200000 2.16798
0.310000 0.200000 2.11589
0.320000 0.200000 2.06414
0.330000 0.200000 2.01289
0.340000 0.200000 1.96239
0.350000 0.200000 1.91292
0.360000 0.200000 1.86478
0.370000 0.200000 1.81830
0.380000 0.200000 1.77382
0.390000 0.200000 1.73167
0.400000 0.200000 1.69219
0.410000 0.200000 1.65570
0.420000 0.200000 1.62248
0.430000 0.200000 1.59281
0.440000 0.200000 1.56693
0.450000 0.200000 1.54504
0.460000 0.200000 1.52733
0.470000 0.200000 1.51392
0.480000 0.200000 1.50492
0.490000 0.200000 1.50041
0.500000 0.200000 1.50041
0.00000 0.220000 5.12604
0.0100000 0.220000 4.93506
0.0200000 0.220000 4.75461
0.0300000 0.220000 4.58463
0.0400000 0.220000 4.42495
0.0500000 0.220000 4.27538
0.0600000 0.220000 4.13566
0.0700000 0.220000 4.00549
0.0800000 0.220000 3.88450
0.0900000 0.220000 3.77228
0.100000 0.220000 3.66835
0.110000 0.220000 3.57220
0.120000 0.220000 3.48326
0.130000 0.220000 3.40092
0.140000 0.220000 3.32454
0.150000 0.220000 3.25345
0.160000 0.220000 3.18696
0.170000 0.220000 3.12439
0.180000 0.220000 3.06505
0.190000 0.220000 3.00827
0.200000 0.220000 2.95345
0.210000 0.220000 2.89998
0.220000 0.220000 2.84734
0.230000 0.220000 2.79505
0.240000 0.220000 2.74272
0.250000 0.220000 2.69000
0.260000 0.220000 2.63664
0.270000 0.220000 2.58246
0.280000 0.220000 2.52736
0.290000 0.220000 2.47133
0.300000 0.220000 2.41444
0.310000 0.220000 2.35686
0.320000 0.220000 2.29883
0.330000 0.220000 2.24065
0.340000 0.220000 2.18272
0.350000 0.220000 2.12545
0.360000 0.220000 2.06931
0.370000 0.220000 2.01478
0.380000 0.220000 1.96236
0.390000 0.220000 1.91251
0.400000 0.220000 1.86569
0.410000 0.220000 1.82234
0.420000 0.220000 1.78283
0.430000 0.220000 1.74751
0.440000 0.220000 1.71669
0.450000 0.220000 1.69062
0.460000 0.220000 1.66951
0.470000 0.220000 1.65354
0.480000 0.220000 1.64283
0.490000 0.220000 1.63745
0.500000 0.220000 1.63745
0.00000 0.240000 5.26416
0.0100000 0.240000 5.07326
0.0200000 0.240000 4.89388
0.0300000 0.240000 4.72592
0.0400000 0.240000 4.56923
0.0500000 0.240000 4.42358
0.0600000 0.240000 4.28871
0.0700000 0.240000 4.16426
0.0800000 0.240000 4.04984
0.0900000 0.240000 3.94496
0.100000 0.240000 3.84908
0.110000 0.240000 3.76159
0.120000 0.240000 3.68180
0.130000 0.240000 3.60897
0.140000 0.240000 3.54231
0.150000 0.240000 3.48096
0.160000 0.240000 3.42406
0.170000 0.240000 3.37073
0.180000 0.240000 3.32011
0.190000 0.240000 3.27134
0.200000 0.240000 3.22366
0.210000 0.240000 3.17632
0.220000 0.240000 3.12870
0.230000 0.240000 3.08022
0.240000 0.240000 3.03041
0.250000 0.240000 2.97887
0.260000 0.240000 2.92533
0.270000 0.240000 2.86960
0.280000 0.240000 2.81158
0.290000 0.240000 2.75132
0.300000 0.240000 2.68895
0.310000 0.240000 2.62473
0.320000 0.240000 2.55903
0.330000 0.240000 2.49233
0.340000 0.240000 2.42520
0.350000 0.240000 2.35828
0.360000 0.240000 2.29222
0.370000 0.240000 2.22775
0.380000 0.240000 2.16553
0.390000 0.240000 2.10622
0.400000 0.240000 2.05045
0.410000 0.240000 1.99876
0.420000 0.240000 1.95165
0.430000 0.240000 1.90955
0.440000 0.240000 1.87282
0.450000 0.240000 1.84178
0.460000 0.240000 1.81666
0.470000 0.240000 1.79767
0.480000 0.240000 1.78493
0.490000 0.240000 1.77854
0.500000 0.240000 1.77854
0.00000 0.260000 5.40159
0.0100000 0.260000 5.21074
0.0200000 0.260000 5.03253
0.0300000 0.260000 4.86684
0.0400000 0.260000 4.71353
0.0500000 0.260000 4.57236
0.0600000 0.260000 4.44304
0.0700000 0.260000 4.32523
0.0800000 0.260000 4.21846
0.0900000 0.260000 4.12224
0.100000 0.260000 4.03594
0.110000 0.260000 3.95886
0.120000 0.260000 3.89020
0.130000 0.260000 3.82906
0.140000 0.260000 3.77445
0.150000 0.260000 3.72529
0.160000 0.260000 3.68048
0.170000 0.260000 3.63887
0.180000 0.260000 3.59933
0.190000 0.260000 3.56080
0.200000 0.260000 3.52227
0.210000 0.260000 3.48286
0.220000 0.260000 3.44176
0.230000 0.260000 3.39831
0.240000 0.260000 3.35195
0.250000 0.260000 3.30222
0.260000 0.260000 3.24879
0.270000 0.260000 3.19145
0.280000 0.260000 3.13009
0.290000 0.260000 3.06477
0.300000 0.260000 2.99569
0.310000 0.260000 2.92321
0.320000 0.260000 2.84788
0.330000 0.260000 2.77037
0.340000 0.260000 2.69152
0.350000 0.260000 2.61227
0.360000 0.260000 2.53362
0.370000 0.260000 2.45654
0.380000 0.260000 2.38202
0.390000 0.260000 2.31093
0.400000 0.260000 2.24410
0.410000 0.260000 2.18222
0.420000 0.260000 2.12591
0.430000 0.260000 2.07567
0.440000 0.260000 2.03192
0.450000 0.260000 1.99499
0.460000 0.260000 1.96517
0.470000 0.260000 1.94264
0.480000 0.260000 1.92754
0.490000 0.260000 1.91997
0.500000 0.260000 1.91997
0.00000 0.280000 5.53412
0.0100000 0.280000 5.34330
0.0200000 0.280000 5.16634
0.0300000 0.280000 5.00317
0.0400000 0.280000 4.85361
0.0500000 0.280000 4.71746
0.0600000 0.280000 4.59444
0.0700000 0.280000 4.48420
0.0800000 0.280000 4.38631
0.0900000 0.280000 4.30024
0.100000 0.280000 4.22533
0.110000 0.280000 4.16083
0.120000 0.280000 4.10580
0.130000 0.280000 4.05918
0.140000 0.280000 4.01974
0.150000 0.280000 3.98612
0.160000 0.280000 3.95683
0.170000 0.280000 3.93035
0.180000 0.280000 3.90518
0.190000 0.280000 3.87988
0.200000 0.280000 3.85318
0.210000 0.280000 3.82398
0.220000 0.280000 3.79134
0.230000 0.280000 3.75448
0.240000 0.280000 3.71276
0.250000 0.280000 3.66566
0.260000 0.280000 3.61279
0.270000 0.280000 3.55385
0.280000 0.280000 3.48869
0.290000 0.280000 3.41733
0.300000 0.280000 3.33996
0.310000 0.280000 3.25705
0.320000 0.280000 3.16931
0.330000 0.280000 3.07773
0.340000 0.280000 2.98354
0.350000 0.280000 2.88815
0.360000 0.280000 2.79307
0.370000 0.280000 2.69974
0.380000 0.280000 2.60952
0.390000 0.280000 2.52364
0.400000 0.280000 2.44311
0.410000 0.280000 2.36881
0.420000 0.280000 2.30142
0.430000 0.280000 2.24152
0.440000 0.280000 2.18953
0.450000 0.280000 2.14578
0.460000 0.280000 2.11053
0.470000 0.280000 2.08396
0.480000 0.280000 2.06618
0.490000 0.280000 2.05727
0.500000 0.280000 2.05727
0.00000 0.300000 5.65687
0.0100000 0.300000 5.46605
0.0200000 0.300000 5.29044
0.0300000 0.300000 5.12993
0.0400000 0.300000 4.98442
0.0500000 0.300000 4.85372
0.0600000 0.300000 4.73762
0.0700000 0.300000 4.63582
0.0800000 0.300000 4.54796
0.0900000 0.300000 4.47357
0.100000 0.300000 4.41203
0.110000 0.300000 4.36258
0.120000 0.300000 4.32424
0.130000 0.300000 4.29578
0.140000 0.300000 4.27571
0.150000 0.300000 4.26225
0.160000 0.300000 4.25336
0.170000 0.300000 4.24685
0.180000 0.300000 4.24057
0.190000 0.300000 4.23254
0.200000 0.300000 4.22111
0.210000 0.300000 4.20497
0.220000 0.300000 4.18310
0.230000 0.300000 4.15470
0.240000 0.300000 4.11911
0.250000 0.300000 4.07577
0.260000 0.300000 4.02421
0.270000 0.300000 3.96399
0.280000 0.300000 3.89479
0.290000 0.300000 3.81644
0.300000 0.300000 3.72899
0.310000 0.300000 3.63284
0.320000 0.300000 3.52886
0.330000 0.300000 3.41844
0.340000 0.300000 3.30350
0.350000 0.300000 3.18631
0.360000 0.300000 3.06924
0.370000 0.300000 2.95452
0.380000 0.300000 2.84410
0.390000 0.300000 2.73957
0.400000 0.300000 2.64219
0.410000 0.300000 2.55293
0.420000 0.300000 2.47249
0.430000 0.300000 2.40140
0.440000 0.300000 2.34002
0.450000 0.300000 2.28860
0.460000 0.300000 2.24733
0.470000 0.300000 2.21630
0.480000 0.300000 2.19558
0.490000 0.300000 2.18522
0.500000 0.300000 2.18522
0.00000 0.320000 5.76451
0.0100000 0.320000 5.57368
0.0200000 0.320000 5.39939
0.0300000 0.320000 5.24159
0.0400000 0.320000 5.10019
0.0500000 0.320000 4.97510
0.0600000 0.320000 4.86620
0.0700000 0.320000 4.77335
0.0800000 0.320000 4.69634
0.0900000 0.320000 4.63486
0.100000 0.320000 4.58851
0.110000 0.320000 4.55668
0.120000 0.320000 4.53850
0.130000 0.320000 4.53275
0.140000 0.320000 4.53770
0.150000 0.320000 4.55106
0.160000 0.320000 4.56986
0.170000 0.320000 4.59064
0.180000 0.320000 4.60982
0.190000 0.320000 4.62446
0.200000 0.320000 4.63249
0.210000 0.320000 4.63257
0.220000 0.320000 4.62386
0.230000 0.320000 4.60583
0.240000 0.320000 4.57801
0.250000 0.320000 4.53993
0.260000 0.320000 4.49103
0.270000 0.320000 4.43064
0.280000 0.320000 4.35802
0.290000 0.320000 4.27246
0.300000 0.320000 4.17341
0.310000 0.320000 4.06079
0.320000 0.320000 3.93530
0.330000 0.320000 3.79876
0.340000 0.320000 3.65437
0.350000 0.320000 3.50632
0.360000 0.320000 3.35883
0.370000 0.320000 3.21543
0.380000 0.320000 3.07886
0.390000 0.320000 2.95107
0.400000 0.320000 2.83339
0.410000 0.320000 2.72668
0.420000 0.320000 2.63144
0.430000 0.320000 2.54798
0.440000 0.320000 2.47644
0.450000 0.320000 2.41687
0.460000 0.320000 2.36927
0.470000 0.320000 2.33361
0.480000 0.320000 2.30988
0.490000 0.320000 2.29802
0.500000 0.320000 2.29802
0.00000 0.340000 5.85157
0.0100000 0.340000 5.66071
0.0200000 0.340000 5.48764
0.0300000 0.340000 5.33232
0.0400000 0.340000 5.19473
0.0500000 0.340000 5.07491
0.0600000 0.340000 4.97289
0.0700000 0.340000 4.88874
0.0800000 0.340000 4.82252
0.0900000 0.340000 4.77431
0.100000 0.340000 4.74411
0.110000 0.340000 4.73181
0.120000 0.340000 4.73708
0.130000 0.340000 4.75918
0.140000 0.340000 4.79663
0.150000 0.340000 4.84685
0.160000 0.340000 4.90553
0.170000 0.340000 4.96626
0.180000 0.340000 5.02117
0.190000 0.340000 5.06547
0.200000 0.340000 5.09713
0.210000 0.340000 5.11574
0.220000 0.340000 5.12158
0.230000 0.340000 5.11505
0.240000 0.340000 5.09637
0.250000 0.340000 5.06541
0.260000 0.340000 5.02159
0.270000 0.340000 4.96387
0.280000 0.340000 4.89072
0.290000 0.340000 4.80021
0.300000 0.340000 4.69020
0.310000 0.340000 4.55873
0.320000 0.340000 4.40490
0.330000 0.340000 4.23016
0.340000 0.340000 4.04012
0.350000 0.340000 3.84514
0.360000 0.340000 3.65369
0.370000 0.340000 3.47138
0.380000 0.340000 3.30148
0.390000 0.340000 3.14572
0.400000 0.340000 3.00486
0.410000 0.340000 2.87908
0.420000 0.340000 2.76829
0.430000 0.340000 2.67224
0.440000 0.340000 2.59062
0.450000 0.340000 2.52313
0.460000 0.340000 2.46950
0.470000 0.340000 2.42949
0.480000 0.340000 2.40292
0.490000 0.340000 2.38967
0.500000 0.340000 2.38967
0.00000 0.360000 5.91298
0.0100000 0.360000 5.72211
0.0200000 0.360000 5.54998
0.0300000 0.360000 5.39660
0.0400000 0.360000 5.26203
0.0500000 0.360000 5.14642
0.0600000 0.360000 5.04999
0.0700000 0.360000 4.97307
0.0800000 0.360000 4.91608
0.0900000 0.360000 4.87959
0.100000 0.360000 4.86431
0.110000 0.360000 4.87109
0.120000 0.360000 4.90087
0.130000 0.360000 4.95459
0.140000 0.360000 5.03282
0.150000 0.360000 5.13489
0.160000 0.360000 5.25689
0.170000 0.360000 5.38705
0.180000 0.360000 5.49507
0.190000 0.360000 5.57565
0.200000 0.360000 5.63138
0.210000 0.360000 5.66639
0.220000 0.360000 5.68433
0.230000 0.360000 5.68781
0.240000 0.360000 5.67836
0.250000 0.360000 5.65649
0.260000 0.360000 5.62178
0.270000 0.360000 5.57278
0.280000 0.360000 5.50695
0.290000 0.360000 5.42039
0.300000 0.360000 5.30766
0.310000 0.360000 5.16167
0.320000 0.360000 4.97443
0.330000 0.360000 4.74002
0.340000 0.360000 4.46400
0.350000 0.360000 4.18927
0.360000 0.360000 3.93245
0.370000 0.360000 3.69899
0.380000 0.360000 3.48972
0.390000 0.360000 3.30373
0.400000 0.360000 3.13957
0.410000 0.360000 2.99575
0.420000 0.360000 2.87091
0.430000 0.360000 2.76391
0.440000 0.360000 2.67378
0.450000 0.360000 2.59975
0.460000 0.360000 2.54122
0.470000 0.360000 2.49772
0.480000 0.360000 2.46891
0.490000 0.360000 2.45456
0.500000 0.360000 2.45456
0.00000 0.380000 5.94479
0.0100000 0.380000 5.75390
0.0200000 0.380000 5.58230
0.0300000 0.380000 5.42999
0.0400000 0.380000 5.29711
0.0500000 0.380000 5.18388
0.0600000 0.380000 5.09065
0.0700000 0.380000 5.01795
0.0800000 0.380000 4.96649
0.0900000 0.380000 4.93727
0.100000 0.380000 4.93169
0.110000 0.380000 4.95167
0.120000 0.380000 4.99997
0.130000 0.380000 5.08058
0.140000 0.380000 5.19952
0.150000 0.380000 5.36614
0.160000 0.380000 5.59558
0.170000 0.380000 5.91349
0.180000 0.380000 6.09362
0.190000 0.380000 6.19863
0.200000 0.380000 6.26066
0.210000 0.380000 6.29661
0.220000 0.380000 6.31557
0.230000 0.380000 6.32247
0.240000 0.380000 6.31981
0.250000 0.380000 6.30858
0.260000 0.380000 6.28862
0.270000 0.380000 6.25863
0.280000 0.380000 6.21586
0.290000 0.380000 6.15546
0.300000 0.380000 6.06892
0.310000 0.380000 5.94129
0.320000 0.380000 5.74547
0.330000 0.380000 5.43073
0.340000 0.380000 4.89894
0.350000 0.380000 4.47959
0.360000 0.380000 4.13704
0.370000 0.380000 3.85028
0.380000 0.380000 3.60634
0.390000 0.380000 3.39684
0.400000 0.380000 3.21616
0.410000 0.380000 3.06038
0.420000 0.380000 2.92669
0.430000 0.380000 2.81303
0.440000 0.380000 2.71788
0.450000 0.380000 2.64007
0.460000 0.380000 2.57875
0.470000 0.380000 2.53328
0.480000 0.380000 2.50321
0.490000 0.380000 2.48825
0.500000 0.380000 2.48825
0.00000 0.400000 6.04479
0.0100000 0.400000 5.75390
0.0200000 0.400000 5.58230
0.0300000 0.400000 5.42999
0.0400000 0.400000 5.29711
0.0500000 0.400000 5.18388
0.0600000 0.400000 5.09065
0.0700000 0.400000 5.01795
0.0800000 0.400000 4.96649
0.0900000 0.400000 4.93727
0.100000 0.400000 4.93169
0.110000 0.400000 4.95167
0.120000 0.400000 4.99997
0.130000 0.400000 5.08058
0.140000 0.400000 5.19952
0.150000 0.400000 5.36614
0.160000 0.400000 5.59558
0.170000 0.400000 7.00000
0.180000 0.400000 7.00000
0.190000 0.400000 7.00000
0.200000 0.400000 7.00000
0.210000 0.400000 7.00000
0.220000 0.400000 7.00000
0.230000 0.400000 7.00000
0.240000 0.400000 7.00000
0.250000 0.400000 7.00000
0.260000 0.400000 7.00000
0.270000 0.400000 7.00000
0.280000 0.400000 7.00000
0.290000 0.400000 7.00000
0.300000 0.400000 7.00000
0.310000 0.400000 7.00000
0.320000 0.400000 7.00000
0.330000 0.400000 7.00000
0.340000 0.400000 4.89894
0.350000 0.400000 4.47959
0.360000 0.400000 4.13704
0.370000 0.400000 3.85028
0.380000 0.400000 3.60634
0.390000 0.400000 3.39684
0.400000 0.400000 3.21616
0.410000 0.400000 3.06038
0.420000 0.400000 2.92669
0.430000 0.400000 2.81303
0.440000 0.400000 2.71788
0.450000 0.400000 2.64007
0.460000 0.400000 2.57875
0.470000 0.400000 2.53328
0.480000 0.400000 2.50321
0.490000 0.400000 2.48825
0.500000 0.400000 2.48825
